/*--------------------------------*- C++ -*----------------------------------*\
  =========                 |
  \\      /  F ield         | OpenFOAM: The Open Source CFD Toolbox
   \\    /   O peration     | Website:  https://openfoam.org
    \\  /    A nd           | Version:  10
     \\/     M anipulation  |
\*---------------------------------------------------------------------------*/
FoamFile
{
    format      ascii;
    class       surfaceScalarField;
    location    "0.28";
    object      phi_0;
}
// * * * * * * * * * * * * * * * * * * * * * * * * * * * * * * * * * * * * * //

dimensions      [1 0 -1 0 0 0 0];

internalField   nonuniform List<scalar> 
7860
(
3.9895995e-08
5.2881204e-07
1.2192741e-08
5.9641106e-07
7.4279204e-09
5.7347257e-07
5.4994402e-09
5.7063619e-07
4.1150143e-09
5.7009211e-07
3.2011548e-09
5.6962152e-07
2.5591526e-09
5.6934964e-07
2.0793143e-09
5.6918746e-07
1.7093117e-09
5.6907762e-07
1.4166213e-09
5.690003e-07
1.179448e-09
5.6894477e-07
9.8302886e-10
5.6890401e-07
8.1702055e-10
5.6887359e-07
6.7393307e-10
5.6885067e-07
5.4819335e-10
5.6883332e-07
4.3554102e-10
5.6882023e-07
3.3262268e-10
5.6881049e-07
2.3671121e-10
5.6880348e-07
1.4550397e-10
5.6879878e-07
5.6970161e-11
5.687961e-07
-3.0772745e-11
5.6879531e-07
-1.1956667e-10
5.6879636e-07
-2.1131773e-10
5.6879932e-07
-3.08103e-10
5.6880435e-07
-4.1230293e-10
5.6881177e-07
-5.2676417e-10
5.6882203e-07
-6.5502031e-10
5.6883583e-07
-8.0160489e-10
5.6885416e-07
-9.7251179e-10
5.6887849e-07
-1.175902e-09
5.6891098e-07
-1.4232765e-09
5.6895497e-07
-1.7314467e-09
5.6901577e-07
-2.1253902e-09
5.6910156e-07
-2.6449882e-09
5.6922722e-07
-3.3726542e-09
5.6943531e-07
-4.4639369e-09
5.6979894e-07
-6.0092345e-09
5.7025298e-07
-9.508211e-09
5.7220669e-07
-2.9576066e-08
5.8877562e-07
5.3913187e-07
5.967254e-08
4.691395e-07
3.6666015e-08
6.1941759e-07
2.2628194e-08
5.8751039e-07
1.6253603e-08
5.7701078e-07
1.2290533e-08
5.7405518e-07
9.6062691e-09
5.7230578e-07
7.6774703e-09
5.7127844e-07
6.236101e-09
5.7062883e-07
5.1265651e-09
5.7018715e-07
4.2487904e-09
5.6987807e-07
3.5374425e-09
5.6965612e-07
2.9483529e-09
5.694931e-07
2.4504768e-09
5.6937147e-07
2.0213391e-09
5.6927981e-07
1.6442258e-09
5.6921043e-07
1.3063597e-09
5.6915809e-07
9.9768419e-10
5.6911916e-07
7.1002131e-10
5.6909114e-07
4.3646577e-10
5.6907233e-07
1.7092647e-10
5.6906164e-07
-9.224243e-11
5.6905848e-07
-3.5856361e-10
5.6906268e-07
-6.3374864e-10
5.690745e-07
-9.240293e-10
5.6909463e-07
-1.2365442e-09
5.6912429e-07
-1.5798297e-09
5.6916532e-07
-1.9644825e-09
5.6922048e-07
-2.4040982e-09
5.6929378e-07
-2.916659e-09
5.6939105e-07
-3.5266569e-09
5.6952098e-07
-4.2685099e-09
5.6969682e-07
-5.1925826e-09
5.6993985e-07
-6.3754984e-09
5.7028447e-07
-7.9359732e-09
5.707877e-07
-1.0077228e-08
5.7157656e-07
-1.3205384e-08
5.729271e-07
-1.8135204e-08
5.751828e-07
-2.8177411e-08
5.822489e-07
-4.5803264e-08
6.0640147e-07
4.933286e-07
6.0008872e-08
4.0913063e-07
5.048733e-08
6.2893913e-07
3.3370727e-08
6.04627e-07
2.4817732e-08
5.8556378e-07
1.9323302e-08
5.7954961e-07
1.5331546e-08
5.7629754e-07
1.2360754e-08
5.7424923e-07
1.010157e-08
5.7288802e-07
8.3406185e-09
5.719481e-07
6.9347802e-09
5.7128391e-07
5.787976e-09
5.7080292e-07
4.8334417e-09
5.7044763e-07
4.0234131e-09
5.701815e-07
3.3229054e-09
5.6998031e-07
2.7056555e-09
5.6982768e-07
2.1514318e-09
5.6971232e-07
1.6442096e-09
5.6962639e-07
1.1708903e-09
5.6956446e-07
7.2036745e-10
5.6952285e-07
2.8281353e-10
5.6949919e-07
-1.5089706e-10
5.6949219e-07
-5.8969453e-10
5.6950148e-07
-1.0428065e-09
5.6952762e-07
-1.5202785e-09
5.6957211e-07
-2.0335764e-09
5.6963758e-07
-2.5963464e-09
5.6972809e-07
-3.2254262e-09
5.6984956e-07
-3.9422561e-09
5.7001061e-07
-4.7749293e-09
5.7022372e-07
-5.7612551e-09
5.705073e-07
-6.9534174e-09
5.7088899e-07
-8.4256132e-09
5.7141204e-07
-1.0287239e-08
5.721461e-07
-1.2700165e-08
5.7320062e-07
-1.5897546e-08
5.7477394e-07
-2.0241264e-08
5.7727082e-07
-2.6709472e-08
5.8165101e-07
-3.8948928e-08
5.9448836e-07
-4.8167888e-08
6.1562043e-07
4.4516071e-07
5.4879113e-08
3.5425152e-07
5.7452274e-08
6.2636597e-07
4.0467635e-08
6.2161164e-07
3.0778836e-08
5.9525258e-07
2.4643117e-08
5.8568533e-07
1.9952344e-08
5.8098831e-07
1.6312965e-08
5.7788861e-07
1.3466524e-08
5.7573446e-07
1.1200906e-08
5.7421372e-07
9.3644083e-09
5.7312041e-07
7.8491465e-09
5.7231818e-07
6.5766333e-09
5.7172015e-07
5.4890234e-09
5.7126911e-07
4.5430055e-09
5.7092633e-07
3.7054861e-09
5.706652e-07
2.9506091e-09
5.7046719e-07
2.2576582e-09
5.7031934e-07
1.6095395e-09
5.7021258e-07
9.916492e-10
5.7014074e-07
3.9099393e-10
5.7009985e-07
-2.0453227e-10
5.7008771e-07
-8.067882e-10
5.7010373e-07
-1.4280068e-09
5.7014883e-07
-2.0814491e-09
5.7022555e-07
-2.7821557e-09
5.7033829e-07
-3.5478736e-09
5.7049381e-07
-4.4002639e-09
5.7070195e-07
-5.3665353e-09
5.7097688e-07
-6.4817234e-09
5.7133891e-07
-7.7919521e-09
5.7181753e-07
-9.359e-09
5.7245603e-07
-1.1266686e-08
5.7331973e-07
-1.3631273e-08
5.7451069e-07
-1.6614102e-08
5.7618345e-07
-2.0412942e-08
5.7857278e-07
-2.5294465e-08
5.8215234e-07
-3.2518649e-08
5.8887519e-07
-4.5102214e-08
6.0707192e-07
-4.6550192e-08
6.1706841e-07
3.9861052e-07
4.7965842e-08
3.0628567e-07
6.007667e-08
6.1425514e-07
4.5400284e-08
6.3628802e-07
3.4875469e-08
6.0577739e-07
2.8399945e-08
5.9216085e-07
2.3419672e-08
5.8596858e-07
1.9434308e-08
5.8187398e-07
1.6229116e-08
5.7893965e-07
1.3619581e-08
5.7682326e-07
1.1466298e-08
5.7527369e-07
9.6641411e-09
5.7412034e-07
8.1330725e-09
5.7325121e-07
6.81207e-09
5.7259011e-07
5.6541228e-09
5.7208428e-07
4.6224571e-09
5.7169686e-07
3.687788e-09
5.7140186e-07
2.8262786e-09
5.7118085e-07
2.0180009e-09
5.7102086e-07
1.2457519e-09
5.7091299e-07
4.9410782e-10
5.7085149e-07
-2.5136835e-10
5.7083319e-07
-1.0048372e-09
5.708572e-07
-1.7808731e-09
5.7092487e-07
-2.595187e-09
5.7103986e-07
-3.4654419e-09
5.7120854e-07
-4.4122372e-09
5.714406e-07
-5.4603484e-09
5.7175007e-07
-6.6403369e-09
5.7215687e-07
-7.9906763e-09
5.7268925e-07
-9.5606266e-09
5.7338748e-07
-1.1414009e-08
5.7430942e-07
-1.3633633e-08
5.7553935e-07
-1.6327798e-08
5.7720485e-07
-1.9640103e-08
5.7949576e-07
-2.3740807e-08
5.8267348e-07
-2.8932833e-08
5.8734437e-07
-3.6793048e-08
5.9673541e-07
-4.8465559e-08
6.1874443e-07
-4.3195254e-08
6.117981e-07
3.5541527e-07
4.0336152e-08
2.6594952e-07
5.8994309e-08
5.9559698e-07
4.8330322e-08
6.4695201e-07
3.7588281e-08
6.1651943e-07
3.092906e-08
5.9882007e-07
2.5894131e-08
5.9100351e-07
2.1780086e-08
5.8598802e-07
1.8392075e-08
5.8232766e-07
1.5577442e-08
5.7963789e-07
1.3214138e-08
5.7763699e-07
1.1206226e-08
5.7612825e-07
9.4784162e-09
5.7497902e-07
7.9715677e-09
5.7409696e-07
6.6387782e-09
5.7341707e-07
5.4424227e-09
5.7289322e-07
4.3518855e-09
5.724924e-07
3.3417806e-09
5.7219095e-07
2.3905522e-09
5.7197209e-07
1.4793567e-09
5.7182419e-07
5.9114233e-10
5.7173971e-07
-2.9014152e-10
5.7171447e-07
-1.1802615e-09
5.7174732e-07
-2.0954033e-09
5.7184001e-07
-3.0528991e-09
5.7199736e-07
-4.0720345e-09
5.7222768e-07
-5.1749943e-09
5.7254356e-07
-6.3880137e-09
5.7296308e-07
-7.7428137e-09
5.7351167e-07
-9.2783983e-09
5.7422484e-07
-1.1043362e-08
5.7515245e-07
-1.3098924e-08
5.7636498e-07
-1.5522347e-08
5.7796277e-07
-1.8411028e-08
5.8009353e-07
-2.1889139e-08
5.8297387e-07
-2.6112461e-08
5.868968e-07
-3.1490537e-08
5.9272244e-07
-3.9656839e-08
6.0490171e-07
-4.9174463e-08
6.2826206e-07
-3.8579591e-08
6.0120323e-07
3.1683568e-07
3.2862825e-08
2.330867e-07
5.5250301e-08
5.7320951e-07
4.9232567e-08
6.5296974e-07
3.9061789e-08
6.2669021e-07
3.2430895e-08
6.0545096e-07
2.7518957e-08
5.9591545e-07
2.3438843e-08
5.9006814e-07
2.0002981e-08
5.8576352e-07
1.7094818e-08
5.8254605e-07
1.4612135e-08
5.8011968e-07
1.2471145e-08
5.7826924e-07
1.0604599e-08
5.7684557e-07
8.9582583e-09
5.757433e-07
7.4879331e-09
5.7488739e-07
6.1572957e-09
5.7422386e-07
4.9361223e-09
5.7371357e-07
3.7988508e-09
5.7332822e-07
2.7234031e-09
5.7304753e-07
1.6902099e-09
5.7285738e-07
6.813785e-10
5.7274854e-07
-3.2003812e-10
5.7271589e-07
-1.3307164e-09
5.72758e-07
-2.3677278e-09
5.7287702e-07
-3.4492221e-09
5.7307885e-07
-4.595169e-09
5.7337363e-07
-5.8282053e-09
5.737766e-07
-7.1746321e-09
5.7430951e-07
-8.6656154e-09
5.7500265e-07
-1.0338637e-08
5.7589786e-07
-1.2239268e-08
5.7705308e-07
-1.4423562e-08
5.7854927e-07
-1.6960942e-08
5.8050015e-07
-1.9936251e-08
5.8306884e-07
-2.345026e-08
5.8648788e-07
-2.764439e-08
5.9109094e-07
-3.3037115e-08
5.9811517e-07
-4.1013414e-08
6.1287801e-07
-4.7690156e-08
6.349388e-07
-3.337731e-08
5.8689038e-07
2.8345837e-07
2.6189142e-08
2.0689756e-07
5.0133058e-08
5.4926559e-07
4.8493984e-08
6.5460881e-07
3.9491415e-08
6.3569278e-07
3.3077766e-08
6.1186461e-07
2.8412302e-08
6.0058091e-07
2.4493126e-08
5.9398731e-07
2.1118381e-08
5.8913827e-07
1.8207186e-08
5.8545725e-07
1.5680316e-08
5.8264655e-07
1.3468635e-08
5.8048092e-07
1.1514966e-08
5.7879924e-07
9.7717979e-09
5.7748647e-07
8.1993412e-09
5.7645985e-07
6.7640677e-09
5.7565913e-07
5.437435e-09
5.750402e-07
4.194799e-09
5.7457086e-07
3.0144908e-09
5.7422784e-07
1.8770186e-09
5.7399485e-07
7.643646e-10
5.7386119e-07
-3.4065087e-10
5.7382091e-07
-1.4549659e-09
5.7387232e-07
-2.5958693e-09
5.7401793e-07
-3.7816041e-09
5.7426459e-07
-5.0320094e-09
5.7462403e-07
-6.3692358e-09
5.7511382e-07
-7.8185577e-09
5.7575883e-07
-9.4093202e-09
5.7659341e-07
-1.1176047e-08
5.7766458e-07
-1.315971e-08
5.7903674e-07
-1.5409378e-08
5.8079894e-07
-1.7984331e-08
5.8307511e-07
-2.0954024e-08
5.8603853e-07
-2.4393641e-08
5.8992749e-07
-2.8438723e-08
5.9513602e-07
-3.3694595e-08
6.0337104e-07
-4.1065864e-08
6.2024928e-07
-4.4799968e-08
6.386729e-07
-2.8205713e-08
5.7029613e-07
2.5525265e-07
2.0571066e-08
1.8632649e-07
4.458362e-08
5.2525304e-07
4.6643451e-08
6.5254898e-07
3.9153661e-08
6.4318257e-07
3.3084235e-08
6.1793404e-07
2.8717988e-08
6.0494716e-07
2.5038458e-08
5.9766684e-07
2.1804027e-08
5.923727e-07
1.8959379e-08
5.8830189e-07
1.6448465e-08
5.8515746e-07
1.4217786e-08
5.827116e-07
1.2221164e-08
5.8079586e-07
1.0418821e-08
5.7928881e-07
8.776401e-09
5.7810227e-07
7.2641535e-09
5.7717138e-07
5.8561147e-09
5.7644824e-07
4.5293699e-09
5.758976e-07
3.2633877e-09
5.7549382e-07
2.0394128e-09
5.7521883e-07
8.3990922e-10
5.750607e-07
-3.5195972e-10
5.7501277e-07
-1.5528279e-09
5.7507318e-07
-2.7796237e-09
5.7524472e-07
-4.0500708e-09
5.7553503e-07
-5.3832133e-09
5.7595717e-07
-6.7999813e-09
5.7653059e-07
-8.3238082e-09
5.7728266e-07
-9.9813162e-09
5.7825092e-07
-1.1803082e-08
5.7948635e-07
-1.3824432e-08
5.8105809e-07
-1.6086353e-08
5.8306086e-07
-1.8636694e-08
5.8562545e-07
-2.1528557e-08
5.8893039e-07
-2.4815956e-08
5.9321489e-07
-2.8645132e-08
5.9896519e-07
-3.3663517e-08
6.0838942e-07
-4.0147503e-08
6.2673326e-07
-4.116196e-08
6.3968736e-07
-2.3418182e-08
5.5255235e-07
2.3183447e-07
1.601566e-08
1.7031083e-07
3.9144416e-08
5.0212428e-07
4.4119208e-08
6.4757419e-07
3.8290252e-08
6.4901153e-07
3.2654439e-08
6.2356985e-07
2.8592076e-08
6.0900952e-07
2.5184014e-08
6.010749e-07
2.2136293e-08
5.9542042e-07
1.9405024e-08
5.9103316e-07
1.695415e-08
5.8760833e-07
1.4744695e-08
5.8492106e-07
1.2741065e-08
5.8279949e-07
1.0911349e-08
5.8111853e-07
9.2270292e-09
5.7978659e-07
7.6626332e-09
5.7873577e-07
6.1953166e-09
5.7791556e-07
4.8044359e-09
5.7728848e-07
3.4711205e-09
5.7682714e-07
2.1778524e-09
5.765121e-07
9.0805712e-10
5.7633049e-07
-3.5429283e-10
5.7627512e-07
-1.6250647e-09
5.7634396e-07
-2.9203577e-09
5.7654001e-07
-4.2568931e-09
5.7687157e-07
-5.652414e-09
5.7735269e-07
-7.1260998e-09
5.7800428e-07
-8.6989936e-09
5.7885555e-07
-1.0394441e-08
5.7994637e-07
-1.2238544e-08
5.8133045e-07
-1.4260584e-08
5.8308013e-07
-1.6493385e-08
5.8529366e-07
-1.8973695e-08
5.8810576e-07
-2.173965e-08
5.9169635e-07
-2.4831724e-08
5.9630697e-07
-2.8418836e-08
6.025523e-07
-3.3128253e-08
6.1309884e-07
-3.8553259e-08
6.3215827e-07
-3.721863e-08
6.3835273e-07
-1.918412e-08
5.3451784e-07
2.1265035e-07
1.2423963e-08
1.5788687e-07
3.4114547e-08
4.804337e-07
4.1250471e-08
6.4043827e-07
3.7079349e-08
6.5318265e-07
3.1942515e-08
6.2870668e-07
2.8169296e-08
6.1278274e-07
2.5033433e-08
6.0421076e-07
2.2192431e-08
5.9826142e-07
1.9601222e-08
5.9362437e-07
1.7239223e-08
5.8997033e-07
1.5079802e-08
5.8708048e-07
1.3096649e-08
5.8478264e-07
1.1265127e-08
5.8295005e-07
9.562386e-09
5.8148933e-07
7.9673086e-09
5.8033085e-07
6.460386e-09
5.7942248e-07
5.0235359e-09
5.7872533e-07
3.6398757e-09
5.782108e-07
2.2934666e-09
5.778585e-07
9.6904357e-10
5.7765491e-07
-3.4826208e-10
5.7759243e-07
-1.6732015e-09
5.7766889e-07
-3.020694e-09
5.7788751e-07
-4.4061084e-09
5.7825698e-07
-5.845541e-09
5.7879213e-07
-7.3560893e-09
5.7951483e-07
-8.9561116e-09
5.8045558e-07
-1.0665459e-08
5.8165572e-07
-1.2505685e-08
5.8317068e-07
-1.4500206e-08
5.8507465e-07
-1.6674333e-08
5.8746779e-07
-1.9054955e-08
5.9048638e-07
-2.166756e-08
5.9430896e-07
-2.4546346e-08
5.9918575e-07
-2.7885904e-08
6.0589186e-07
-3.2231495e-08
6.1744443e-07
-3.652527e-08
6.3645205e-07
-3.3271254e-08
6.3509871e-07
-1.5565214e-08
5.168118e-07
1.9708513e-07
9.6573574e-09
1.4822951e-07
2.9646325e-08
4.6044474e-07
3.8283893e-08
6.318007e-07
3.5659123e-08
6.5580742e-07
3.1059647e-08
6.3330616e-07
2.7554018e-08
6.1628837e-07
2.4673286e-08
6.070915e-07
2.2041218e-08
6.0089349e-07
1.9601846e-08
5.9606374e-07
1.7345201e-08
5.9222698e-07
1.5254672e-08
5.89171e-07
1.3311678e-08
5.8672564e-07
1.1497886e-08
5.8476384e-07
9.7955715e-09
5.8319164e-07
8.1877319e-09
5.8193869e-07
6.6581474e-09
5.8095207e-07
5.1913741e-09
5.8019211e-07
3.7726693e-09
5.796295e-07
2.38787e-09
5.792433e-07
1.0232422e-09
5.7901954e-07
-3.3468979e-10
5.7895036e-07
-1.6993226e-09
5.7903353e-07
-3.0841612e-09
5.7927234e-07
-4.5029996e-09
5.7967582e-07
-5.9700904e-09
5.8025922e-07
-7.5002975e-09
5.8104503e-07
-9.1092188e-09
5.820645e-07
-1.0813262e-08
5.8335976e-07
-1.2629676e-08
5.8498709e-07
-1.4576538e-08
5.8702151e-07
-1.6672587e-08
5.8956384e-07
-1.8936297e-08
5.9275009e-07
-2.1383174e-08
5.9675583e-07
-2.4047356e-08
6.0184993e-07
-2.7145211e-08
6.0898972e-07
-3.1091409e-08
6.2139063e-07
-3.4267674e-08
6.3962831e-07
-2.9524986e-08
6.3035602e-07
-1.2556829e-08
4.9984364e-07
1.8452831e-07
7.5670204e-09
1.406625e-07
2.5787415e-08
4.4222435e-07
3.5390337e-08
6.2219778e-07
3.4139433e-08
6.5705832e-07
3.0088828e-08
6.3735676e-07
2.6826235e-08
6.1955096e-07
2.4173258e-08
6.0974447e-07
2.1740433e-08
6.0332632e-07
1.9454177e-08
5.9835e-07
1.7310142e-08
5.9437101e-07
1.5299448e-08
5.911817e-07
1.3409715e-08
5.8861537e-07
1.1627828e-08
5.8654573e-07
9.9404737e-09
5.84879e-07
8.3343358e-09
5.8354483e-07
6.7962612e-09
5.8249014e-07
5.3133612e-09
5.8167501e-07
3.8730434e-09
5.8106982e-07
2.4629929e-09
5.8065335e-07
1.0711165e-09
5.8041142e-07
-3.1453885e-10
5.8033602e-07
-1.705879e-09
5.8042487e-07
-3.1148656e-09
5.8068133e-07
-4.5536091e-09
5.8111456e-07
-6.0344487e-09
5.8174006e-07
-7.5700066e-09
5.8258059e-07
-9.1732068e-09
5.836677e-07
-1.0857241e-08
5.8504379e-07
-1.2635478e-08
5.8676533e-07
-1.4521345e-08
5.8890738e-07
-1.6528024e-08
5.9157051e-07
-1.866711e-08
5.9488918e-07
-2.0947106e-08
5.9903583e-07
-2.3407202e-08
6.0431003e-07
-2.6277126e-08
6.1185964e-07
-2.9809065e-08
6.2492257e-07
-3.1942124e-08
6.4176137e-07
-2.6102179e-08
6.2451608e-07
-1.0112323e-08
4.8385379e-07
1.7441598e-07
6.0123792e-09
1.3465012e-07
2.2516038e-08
4.257207e-07
3.2671664e-08
6.1204216e-07
3.2600723e-08
6.5712926e-07
2.9090153e-08
6.4086733e-07
2.6046119e-08
6.22595e-07
2.3588688e-08
6.122019e-07
2.1337657e-08
6.0557735e-07
1.9198411e-08
6.0048924e-07
1.716749e-08
5.9640193e-07
1.5241516e-08
5.9310767e-07
1.3412861e-08
5.9044402e-07
1.1672539e-08
5.8828605e-07
1.0010878e-08
5.8654066e-07
8.417733e-09
5.8513797e-07
6.8826899e-09
5.8402518e-07
5.3952246e-09
5.8316247e-07
3.9448029e-09
5.8252024e-07
2.5209324e-09
5.8207722e-07
1.1131779e-09
5.8181917e-07
-2.8884968e-10
5.8173804e-07
-1.6955175e-09
5.8183154e-07
-3.1172039e-09
5.8210302e-07
-4.5643214e-09
5.8256168e-07
-6.0473248e-09
5.8322306e-07
-7.5766922e-09
5.8410996e-07
-9.1628695e-09
5.8525387e-07
-1.0816165e-08
5.8669709e-07
-1.2546589e-08
5.8849575e-07
-1.4363681e-08
5.9072447e-07
-1.6276127e-08
5.9348296e-07
-1.8290223e-08
5.9690327e-07
-2.0410553e-08
6.0115616e-07
-2.2684914e-08
6.0658439e-07
-2.5345252e-08
6.1451998e-07
-2.8465068e-08
6.2804238e-07
-2.9662827e-08
6.4295913e-07
-2.3058108e-08
6.1791136e-07
-8.1632527e-09
4.6895893e-07
1.6625273e-07
4.8707307e-09
1.297794e-07
1.9773646e-08
4.1081779e-07
3.0176146e-08
6.0163967e-07
3.1095343e-08
6.5621007e-07
2.8103122e-08
6.4385955e-07
2.5255965e-08
6.2544215e-07
2.2961706e-08
6.1449616e-07
2.0870945e-08
6.0766811e-07
1.8867827e-08
6.0249236e-07
1.6945803e-08
5.9832396e-07
1.5104949e-08
5.9494853e-07
1.3341075e-08
5.922079e-07
1.1648306e-08
5.8997882e-07
1.0019853e-08
5.8816911e-07
8.4481955e-09
5.8670963e-07
6.9252803e-09
5.855481e-07
5.4426941e-09
5.8464506e-07
3.9917991e-09
5.8397114e-07
2.5638287e-09
5.8350519e-07
1.1499522e-09
5.8323305e-07
-2.5868535e-10
5.8314668e-07
-1.6709351e-09
5.8324378e-07
-3.0956235e-09
5.835277e-07
-4.5415226e-09
5.8400758e-07
-6.0173053e-09
5.8469884e-07
-7.5314757e-09
5.8562413e-07
-9.0922653e-09
5.8681466e-07
-1.0707491e-08
5.8831231e-07
-1.2384369e-08
5.9017263e-07
-1.4129331e-08
5.9246943e-07
-1.5947595e-08
5.9530122e-07
-1.7841689e-08
5.9879737e-07
-1.9815084e-08
6.0312955e-07
-2.1925924e-08
6.0869523e-07
-2.4396342e-08
6.1699039e-07
-2.7118179e-08
6.3076422e-07
-2.7501899e-08
6.4334285e-07
-2.0402148e-08
6.1081161e-07
-6.6339701e-09
4.5519075e-07
1.5961876e-07
4.0397156e-09
1.2573969e-07
1.7487763e-08
3.9736976e-07
2.7917754e-08
5.9120969e-07
2.9653929e-08
6.5447389e-07
2.7150946e-08
6.4636253e-07
2.4482972e-08
6.2811013e-07
2.2322463e-08
6.1665667e-07
2.0369376e-08
6.0962119e-07
1.8489e-08
6.0437274e-07
1.6668719e-08
6.0014424e-07
1.4910281e-08
5.9670696e-07
1.3211835e-08
5.9390634e-07
1.1569729e-08
5.9162092e-07
9.9793564e-09
5.8975948e-07
8.4352954e-09
5.8825369e-07
6.9314604e-09
5.8705193e-07
5.461264e-09
5.8611525e-07
4.0177616e-09
5.8541464e-07
2.5937686e-09
5.8492919e-07
1.1819537e-09
5.8464486e-07
-2.2508629e-10
5.8455372e-07
-1.6347621e-09
5.8465346e-07
-3.0544331e-09
5.8494738e-07
-4.4913405e-09
5.8544449e-07
-5.9525277e-09
5.8616003e-07
-7.4447391e-09
5.8711634e-07
-8.9742923e-09
5.8834422e-07
-1.0546925e-08
5.8988495e-07
-1.2167618e-08
5.9179332e-07
-1.3840425e-08
5.9414224e-07
-1.5568032e-08
5.9702883e-07
-1.7350561e-08
6.0057989e-07
-1.9192681e-08
6.0497167e-07
-2.1162973e-08
6.1066552e-07
-2.3462402e-08
6.1928982e-07
-2.5808169e-08
6.3310999e-07
-2.5499117e-08
6.4303379e-07
-1.8115779e-08
6.0342827e-07
-5.4501046e-09
4.4252508e-07
1.5416865e-07
3.4366583e-09
1.2230304e-07
1.5584579e-08
3.8522186e-07
2.5889874e-08
5.809044e-07
2.8291908e-08
6.5207186e-07
2.6245502e-08
6.4840894e-07
2.3743039e-08
6.3061259e-07
2.1691276e-08
6.1870843e-07
1.9854178e-08
6.1145829e-07
1.8082354e-08
6.0614456e-07
1.6355146e-08
6.0187145e-07
1.4674495e-08
5.9838761e-07
1.304e-08
5.9554084e-07
1.1449512e-08
5.9321141e-07
9.9000069e-09
5.9130899e-07
8.3876797e-09
5.8976602e-07
6.9080369e-09
5.8853157e-07
5.4560278e-09
5.8756726e-07
4.0261788e-09
5.8684449e-07
2.612715e-09
5.8634265e-07
1.2096669e-09
5.8604791e-07
-1.8903512e-10
5.8595242e-07
-1.5894742e-09
5.860539e-07
-2.997664e-09
5.8635557e-07
-4.4194587e-09
5.8686628e-07
-5.8604537e-09
5.8760102e-07
-7.3258695e-09
5.8858175e-07
-8.8204185e-09
5.8983876e-07
-1.034816e-08
5.9141269e-07
-1.1912353e-08
5.9335752e-07
-1.3515315e-08
5.957452e-07
-1.5157994e-08
5.9867151e-07
-1.6839275e-08
6.0226117e-07
-1.8566774e-08
6.0669917e-07
-2.0418308e-08
6.1251706e-07
-2.2563943e-08
6.2143546e-07
-2.4559914e-08
6.3510596e-07
-2.3671329e-08
6.4214521e-07
-1.616503e-08
5.9592197e-07
-4.5432459e-09
4.309033e-07
1.4962541e-07
2.9969281e-09
1.1930613e-07
1.399563e-08
3.7422318e-07
2.4074655e-08
5.708254e-07
2.7014443e-08
6.4913208e-07
2.539119e-08
6.5003219e-07
2.30442e-08
6.3295958e-07
2.1081014e-08
6.2067162e-07
1.9340234e-08
6.1319907e-07
1.7663076e-08
6.0782172e-07
1.6019769e-08
6.0351475e-07
1.4411246e-08
5.9999614e-07
1.2837865e-08
5.9711422e-07
1.1298423e-08
5.9475085e-07
9.7909865e-09
5.9281643e-07
8.312952e-09
5.9124405e-07
6.8610787e-09
5.8998345e-07
5.431577e-09
5.8899676e-07
4.0202209e-09
5.8825584e-07
2.6224619e-09
5.8774041e-07
1.2335364e-09
5.8743684e-07
-1.5143127e-10
5.8733739e-07
-1.5373323e-09
5.874398e-07
-2.9289775e-09
5.8774721e-07
-4.3309966e-09
5.882683e-07
-5.7477306e-09
5.8901776e-07
-7.1831147e-09
5.9001714e-07
-8.6405524e-09
5.912962e-07
-1.0122791e-08
5.9289493e-07
-1.1631816e-08
5.9486654e-07
-1.3168748e-08
5.9728213e-07
-1.4733444e-08
6.0023621e-07
-1.6324529e-08
6.0385226e-07
-1.7953753e-08
6.0832839e-07
-1.9706048e-08
6.1426935e-07
-2.1712852e-08
6.2344226e-07
-2.3386919e-08
6.3678002e-07
-2.2019725e-08
6.4077802e-07
-1.4508871e-08
5.8841112e-07
-3.8534959e-09
4.2024792e-07
1.4577191e-07
2.6716868e-09
1.1663446e-07
1.2661175e-08
3.6423372e-07
2.2449357e-08
5.6103724e-07
2.5820185e-08
6.4576126e-07
2.4587628e-08
6.5126475e-07
2.2389182e-08
6.3515802e-07
2.0499103e-08
6.225617e-07
1.8837534e-08
6.1486064e-07
1.7242121e-08
6.0941713e-07
1.5673701e-08
6.0508317e-07
1.4131253e-08
6.0153858e-07
1.2615372e-08
5.986301e-07
1.1125381e-08
5.9624084e-07
9.6600529e-09
5.9428175e-07
8.217643e-09
5.9268646e-07
6.7958687e-09
5.9140522e-07
5.3919513e-09
5.9040068e-07
4.0027001e-09
5.896451e-07
2.6246099e-09
5.891185e-07
1.2539622e-09
5.8880748e-07
-1.1307454e-10
5.8870443e-07
-1.4803456e-09
5.8880707e-07
-2.8516116e-09
5.8911848e-07
-4.2304458e-09
5.8964713e-07
-5.6201284e-09
5.9040744e-07
-7.0235365e-09
5.9142055e-07
-8.4430351e-09
5.927157e-07
-9.8803818e-09
5.9433227e-07
-1.1336664e-08
5.9632282e-07
-1.2812236e-08
5.987577e-07
-1.4306388e-08
6.0173036e-07
-1.5818261e-08
6.0536413e-07
-1.7364406e-08
6.0987454e-07
-1.9034153e-08
6.159391e-07
-2.0914641e-08
6.2532275e-07
-2.2294338e-08
6.3815972e-07
-2.0535616e-08
6.3901929e-07
-1.3104797e-08
5.809803e-07
-3.3304485e-09
4.1047357e-07
1.4244146e-07
2.425194e-09
1.1420928e-07
1.1531302e-08
3.5512765e-07
2.0990434e-08
5.5157813e-07
2.4704161e-08
6.4204754e-07
2.383166e-08
6.5213725e-07
2.1777293e-08
6.3721239e-07
1.994909e-08
6.243899e-07
1.8352372e-08
6.1645736e-07
1.6827114e-08
6.1094239e-07
1.5325128e-08
6.0658516e-07
1.3842741e-08
6.0302097e-07
1.2380386e-08
6.0009246e-07
1.093762e-08
5.9768361e-07
9.5136254e-09
5.9570575e-07
8.107246e-09
5.9409284e-07
6.71691e-09
5.9279556e-07
5.3406305e-09
5.9177696e-07
3.9760583e-09
5.9100967e-07
2.6205587e-09
5.90474e-07
1.2712994e-09
5.9015674e-07
-7.4656313e-11
5.9005038e-07
-1.4202546e-09
5.9015267e-07
-2.7683597e-09
5.9046658e-07
-4.1216528e-09
5.9100043e-07
-5.4825362e-09
5.9176832e-07
-6.8530371e-09
5.9279105e-07
-8.2347203e-09
5.9409738e-07
-9.628625e-09
5.9572618e-07
-1.1035246e-08
5.9772944e-07
-1.2454504e-08
6.0017696e-07
-1.3885524e-08
6.0316138e-07
-1.5328558e-08
6.0680717e-07
-1.6805169e-08
6.1135115e-07
-1.8406059e-08
6.1753999e-07
-2.0170334e-08
6.2708703e-07
-2.1281645e-08
6.3927103e-07
-1.9204976e-08
6.3694262e-07
-1.191266e-08
5.7368798e-07
-2.9330987e-09
4.0149401e-07
1.3950836e-07
2.2320698e-09
1.1197724e-07
1.0565558e-08
3.467942e-07
1.9675826e-08
5.424679e-07
2.3659822e-08
6.3806356e-07
2.3118822e-08
6.5267825e-07
2.1205849e-08
6.3912536e-07
1.943189e-08
6.2616386e-07
1.7888335e-08
6.1800091e-07
1.6423118e-08
6.1240761e-07
1.49799e-08
6.0802838e-07
1.3551869e-08
6.04449e-07
1.2139004e-08
6.0150532e-07
1.0740891e-08
5.9908172e-07
9.3569152e-09
5.9708972e-07
7.9862944e-09
5.9546346e-07
6.6279682e-09
5.9415388e-07
5.2805555e-09
5.9312437e-07
3.9423771e-09
5.9234785e-07
2.6115105e-09
5.9180486e-07
1.2858615e-09
5.9148239e-07
-3.6756914e-11
5.91373e-07
-1.3585304e-09
5.9147444e-07
-2.681576e-09
5.9178963e-07
-4.007836e-09
5.9232669e-07
-5.3390022e-09
5.9309949e-07
-6.6764359e-09
5.9412848e-07
-8.0211045e-09
5.9544205e-07
-9.373551e-09
5.9707862e-07
-1.0733914e-08
5.9908981e-07
-1.2101931e-08
6.0154498e-07
-1.3476858e-08
6.045363e-07
-1.4860486e-08
6.0819079e-07
-1.6279231e-08
6.127699e-07
-1.7822067e-08
6.1908282e-07
-1.9478048e-08
6.2874301e-07
-2.0344832e-08
6.4013782e-07
-1.8011573e-08
6.3460936e-07
-1.0896588e-08
5.6657299e-07
-2.6289921e-09
3.9322642e-07
1.3687937e-07
2.0748294e-09
1.0990243e-07
9.7318366e-09
3.3913725e-07
1.8486005e-08
5.3371378e-07
2.2680325e-08
6.3386926e-07
2.2444322e-08
6.5291425e-07
2.06712e-08
6.4089848e-07
1.8946755e-08
6.278883e-07
1.7447108e-08
6.1950056e-07
1.6033289e-08
6.1382143e-07
1.4642045e-08
6.0941962e-07
1.326313e-08
6.0582792e-07
1.1895847e-08
6.028726e-07
1.0539681e-08
6.0043789e-07
9.1940742e-09
5.9843533e-07
7.8584623e-09
5.9679907e-07
6.5321368e-09
5.9548021e-07
5.2141685e-09
5.9444234e-07
3.9034011e-09
5.9365861e-07
2.5984834e-09
5.9310978e-07
1.2979248e-09
5.9278295e-07
1.6196451e-13
5.9267076e-07
-1.296385e-09
5.9277099e-07
-2.593198e-09
5.9308644e-07
-3.8916262e-09
5.9362512e-07
-5.1928005e-09
5.9440066e-07
-6.4975741e-09
5.9543325e-07
-7.8064844e-09
5.9675096e-07
-9.1197542e-09
5.9839189e-07
-1.0437344e-08
6.004074e-07
-1.1758982e-08
6.0286662e-07
-1.3084274e-08
6.058616e-07
-1.4416831e-08
6.0952335e-07
-1.578747e-08
6.1414053e-07
-1.7280455e-08
6.2057581e-07
-1.8834205e-08
6.3029676e-07
-1.9478011e-08
6.4078162e-07
-1.6938906e-08
6.3207026e-07
-1.0025523e-08
5.5965961e-07
-2.3930152e-09
3.8559391e-07
1.3448636e-07
1.9418023e-09
1.0796067e-07
9.005018e-09
3.320741e-07
1.7404261e-08
5.253146e-07
2.1759235e-08
6.2951432e-07
2.1803609e-08
6.5286988e-07
2.0169396e-08
6.4253269e-07
1.8491973e-08
6.2956572e-07
1.7029099e-08
6.2096343e-07
1.5659407e-08
6.1519112e-07
1.4314213e-08
6.1076481e-07
1.2979699e-08
6.0716243e-07
1.1654335e-08
6.0419797e-07
1.0337416e-08
6.0175481e-07
9.0283492e-09
5.997444e-07
7.7266748e-09
5.9810075e-07
6.4319141e-09
5.9677497e-07
5.1434651e-09
5.9573079e-07
3.8605702e-09
5.9494151e-07
2.5823276e-09
5.9438802e-07
1.3077281e-09
5.9405755e-07
3.5706316e-11
5.9394278e-07
-1.2347964e-09
5.9404149e-07
-2.5047815e-09
5.9435642e-07
-3.7751224e-09
5.9489546e-07
-5.0465144e-09
5.9567205e-07
-6.3194342e-09
5.9670617e-07
-7.5941243e-09
5.9802565e-07
-8.8706214e-09
5.9966839e-07
-1.0148836e-08
6.0168561e-07
-1.1428605e-08
6.0414639e-07
-1.2710037e-08
6.0714303e-07
-1.399872e-08
6.1081203e-07
-1.5329215e-08
6.1547103e-07
-1.6778316e-08
6.2202491e-07
-1.8234399e-08
6.3175284e-07
-1.8674533e-08
6.4122176e-07
-1.5971401e-08
6.2936713e-07
-9.2733418e-09
5.5296155e-07
-2.2061955e-09
3.7852676e-07
1.3228016e-07
1.8254477e-09
1.0613526e-07
8.3656181e-09
3.2553402e-07
1.6416589e-08
5.1726371e-07
2.0890858e-08
6.2504008e-07
2.1192654e-08
6.5256809e-07
1.9696589e-08
6.4402875e-07
1.8065349e-08
6.3119696e-07
1.66339e-08
6.2239488e-07
1.5302285e-08
6.1652273e-07
1.399803e-08
6.1206907e-07
1.2703742e-08
6.0845672e-07
1.1416931e-08
6.0548478e-07
1.0136656e-08
6.0303508e-07
8.8622297e-09
6.0101882e-07
7.5932194e-09
5.9936976e-07
6.3292841e-09
5.980389e-07
5.07005e-09
5.9699002e-07
3.8150563e-09
5.961965e-07
2.5637475e-09
5.9563933e-07
1.3154931e-09
5.953058e-07
6.9625759e-11
5.9518865e-07
-1.1745167e-09
5.9528563e-07
-2.417541e-09
5.9559945e-07
-3.6599545e-09
5.9613787e-07
-4.9021264e-09
5.9691423e-07
-6.1442649e-09
5.9794831e-07
-7.3864231e-09
5.9926781e-07
-8.628551e-09
6.0091052e-07
-9.8705948e-09
6.0292765e-07
-1.1112581e-08
6.0538837e-07
-1.2355217e-08
6.0838566e-07
-1.3606129e-08
6.1206295e-07
-1.4902818e-08
6.1676772e-07
-1.631215e-08
6.2343424e-07
-1.7673991e-08
6.3311468e-07
-1.7927718e-08
6.4147548e-07
-1.509503e-08
6.2653444e-07
-8.6185325e-09
5.4648505e-07
-2.0545347e-09
3.7196276e-07
1.3022563e-07
1.7210462e-09
1.0441426e-07
7.7985642e-09
3.194566e-07
1.5511376e-08
5.0955098e-07
2.0070327e-08
6.2048118e-07
2.0608065e-08
6.5203036e-07
1.9249255e-08
6.4538755e-07
1.7664516e-08
6.327817e-07
1.6260611e-08
6.2379879e-07
1.4962087e-08
6.1782126e-07
1.3694384e-08
6.1333677e-07
1.2436655e-08
6.0971445e-07
1.1185352e-08
6.0673608e-07
9.9392645e-09
6.0428117e-07
8.6975843e-09
6.022605e-07
7.4598512e-09
6.0060749e-07
6.2257952e-09
5.9927296e-07
4.9951941e-09
5.9822062e-07
3.767801e-09
5.9742389e-07
2.5433204e-09
5.9686381e-07
1.3214127e-09
5.9652771e-07
1.017174e-10
5.9640835e-07
-1.1161163e-09
5.9650347e-07
-2.3323948e-09
5.9681573e-07
-3.5473486e-09
5.9735282e-07
-4.7611088e-09
5.9812799e-07
-5.9737012e-09
5.991609e-07
-7.1850701e-09
6.0047918e-07
-8.3951494e-09
6.021206e-07
-9.6039775e-09
6.0413648e-07
-1.0811813e-08
6.0659621e-07
-1.2020031e-08
6.0959388e-07
-1.3238269e-08
6.1328118e-07
-1.4506078e-08
6.1803553e-07
-1.5878281e-08
6.2480644e-07
-1.7148483e-08
6.3438488e-07
-1.7231299e-08
6.415583e-07
-1.4297556e-08
6.236007e-07
-8.043655e-09
5.4023115e-07
-1.927933e-09
3.6584704e-07
1.2829769e-07
1.625728e-09
1.0278859e-07
7.29216e-09
3.1379028e-07
1.4679008e-08
5.0216425e-07
1.9293562e-08
6.1586668e-07
2.0047073e-08
6.5127686e-07
1.882429e-08
6.4661033e-07
1.7287124e-08
6.3431886e-07
1.5908062e-08
6.2517785e-07
1.4638543e-08
6.1909078e-07
1.3403643e-08
6.1457167e-07
1.2179266e-08
6.1093882e-07
1.0960739e-08
6.0795461e-07
9.7465581e-09
6.0549535e-07
8.5357807e-09
6.0347128e-07
7.3278886e-09
6.0181538e-07
6.1226341e-09
6.0047821e-07
4.9198875e-09
5.9942337e-07
3.7195502e-09
5.9862423e-07
2.5215161e-09
5.9806185e-07
1.3256628e-09
5.9772356e-07
1.3186209e-10
5.9760215e-07
-1.0600019e-09
5.9769533e-07
-2.2500104e-09
5.9800573e-07
-3.4381915e-09
5.98541e-07
-4.6245101e-09
5.993143e-07
-5.8088765e-09
6.0034527e-07
-6.9911858e-09
6.0166149e-07
-8.1714039e-09
6.0330081e-07
-9.3496937e-09
6.0531477e-07
-1.0526571e-08
6.0777309e-07
-1.1704113e-08
6.1077142e-07
-1.2893879e-08
6.1447095e-07
-1.413654e-08
6.1927819e-07
-1.5473121e-08
6.2614302e-07
-1.665375e-08
6.3556551e-07
-1.6579645e-08
6.4148419e-07
-1.356853e-08
6.2058958e-07
-7.5347302e-09
5.3419735e-07
-1.8192582e-09
3.6013157e-07
1.2647843e-07
1.5377848e-09
1.0125087e-07
6.8372542e-09
3.0849095e-07
1.3911494e-08
4.9509014e-07
1.8557162e-08
6.1122109e-07
1.950747e-08
6.5032657e-07
1.8419029e-08
6.4769877e-07
1.6930955e-08
6.3580693e-07
1.5574966e-08
6.2653383e-07
1.4331121e-08
6.2033462e-07
1.3125812e-08
6.1577698e-07
1.1931991e-08
6.1213264e-07