/*--------------------------------*- C++ -*----------------------------------*\
  =========                 |
  \\      /  F ield         | OpenFOAM: The Open Source CFD Toolbox
   \\    /   O peration     | Website:  https://openfoam.org
    \\  /    A nd           | Version:  10
     \\/     M anipulation  |
\*---------------------------------------------------------------------------*/
FoamFile
{
    format      ascii;
    class       volScalarField;
    location    "0.28";
    object      T;
}
// * * * * * * * * * * * * * * * * * * * * * * * * * * * * * * * * * * * * * //

dimensions      [0 0 0 1 0 0 0];

internalField   nonuniform List<scalar> 
4000
(
303.10135
299.3429
299.99042
300.00082
299.99993
300
300
300
300
300
300
300
300
300
300
300
300
300
300
300
300
300
300
300
300
300
300
300
300
300
300
300
300
300
300
300
300
300
300
300
309.66347
298.49296
299.77921
300.00184
300.0008
299.99999
300
300
300
300
300
300
300
300
300
300
300
300
300
300
300
300
300
300
300
300
300
300
300
300
300
300
300
300
300
300
300
300
300
300
316.00432
298.68457
299.39219
299.9757
300.00406
300.00025
299.99999
300
300
300
300
300
300
300
300
300
300
300
300
300
300
300
300
300
300
300
300
300
300
300
300
300
300
300
300
300
300
300
300
300
321.74243
299.84596
298.98477
299.89491
300.00716
300.00139
300
299.99999
300
300
300
300
300
300
300
300
300
300
300
300
300
300
300
300
300
300
300
300
300
300
300
300
300
300
300
300
300
300
300
300
326.67132
301.7006
298.70996
299.75311
300.00323
300.00379
300.00017
299.99998
300
300
300
300
300
300
300
300
300
300
300
300
300
300
300
300
300
300
300
300
300
300
300
300
300
300
300
300
300
300
300
300
330.68537
303.94824
298.66324
299.56827
299.98427
300.00697
300.00072
299.99997
299.99999
300
300
300
300
300
300
300
300
300
300
300
300
300
300
300
300
300
300
300
300
300
300
300
300
300
300
300
300
300
300
300
333.77481
306.33115
298.87089
299.37364
299.94516
300.00939
300.00181
300
299.99998
300
300
300
300
300
300
300
300
300
300
300
300
300
300
300
300
300
300
300
300
300
300
300
300
300
300
300
300
300
300
300
336.02239
308.6648
299.30783
299.20375
299.88577
300.00891
300.00346
300.00014
299.99997
300
300
300
300
300
300
300
300
300
300
300
300
300
300
300
300
300
300
300
300
300
300
300
300
300
300
300
300
300
300
300
337.57467
310.83835
299.92433
299.08453
299.81046
300.00352
300.00542
300.00046
299.99996
299.99999
300
300
300
300
300
300
300
300
300
300
300
300
300
300
300
300
300
300
300
300
300
300
300
300
300
300
300
300
300
300
338.603
312.79906
300.66584
299.03047
299.72627
299.99192
300.00725
300.001
299.99996
299.99998
300
300
300
300
300
300
300
300
300
300
300
300
300
300
300
300
300
300
300
300
300
300
300
300
300
300
300
300
300
300
339.2701
314.53404
301.48375
299.04598
299.64095
299.97368
300.00841
300.00176
300.00001
299.99997
300
300
300
300
300
300
300
300
300
300
300
300
300
300
300
300
300
300
300
300
300
300
300
300
300
300
300
300
300
300
339.70928
316.05457
302.33968
299.12839
299.5615
299.94924
300.00835
300.00269
300.00012
299.99996
300
300
300
300
300
300
300
300
300
300
300
300
300
300
300
300
300
300
300
300
300
300
300
300
300
300
300
300
300
300
340.01716
317.38408
303.20601
299.27102
299.49354
299.91971
300.00662
300.00368
300.0003
299.99996
299.99999
300
300
300
300
300
300
300
300
300
300
300
300
300
300
300
300
300
300
300
300
300
300
300
300
300
300
300
300
300
340.25641
318.55009
304.06434
299.46547
299.441
299.88652
300.00294
300.00462
300.00057
299.99996
299.99999
300
300
300
300
300
300
300
300
300
300
300
300
300
300
300
300
300
300
300
300
300
300
300
300
300
300
300
300
300
340.46349
319.57944
304.90333
299.70321
299.40636
299.85129
299.99715
300.00536
300.0009
299.99998
299.99998
300
300
300
300
300
300
300
300
300
300
300
300
300
300
300
300
300
300
300
300
300
300
300
300
300
300
300
300
300
340.65714
320.49598
305.71661
299.9763
299.39087
299.81561
299.98928
300.00575
300.0013
300.00003
299.99998
300
300
300
300
300
300
300
300
300
300
300
300
300
300
300
300
300
300
300
300
300
300
300
300
300
300
300
300
300
340.84541
321.31975
306.5011
300.27782
299.39488
299.78094
299.97945
300.00568
300.00174
300.0001
299.99997
300
300
300
300
300
300
300
300
300
300
300
300
300
300
300
300
300
300
300
300
300
300
300
300
300
300
300
300
300
341.03062
322.06698
307.25578
300.60187
299.41813
299.74857
299.96791
300.00505
300.00218
300.00019
299.99997
299.99999
300
300
300
300
300
300
300
300
300
300
300
300
300
300
300
300
300
300
300
300
300
300
300
300
300
300
300
300
341.21244
322.7505
307.98081
300.94355
299.45995
299.7196
299.95494
300.00378
300.00259
300.00031
299.99998
299.99999
300
300
300
300
300
300
300
300
300
300
300
300
300
300
300
300
300
300
300
300
300
300
300
300
300
300
300
300
341.38963
323.38032
308.677
301.29879
299.51939
299.69492
299.94088
300.00182
300.00293
300.00046
299.99999
299.99999
300
300
300
300
300
300
300
300
300
300
300
300
300
300
300
300
300
300
300
300
300
300
300
300
300
300
300
300
341.56089
323.96422
309.34544
301.66421
299.59538
299.67525
299.9261
299.99915
300.00316
300.00063
300.00001
299.99999
300
300
300
300
300
300
300
300
300
300
300
300
300
300
300
300
300
300
300
300
300
300
300
300
300
300
300
300
341.72525
324.50826
309.98736
302.03703
299.68676
299.66116
299.91096
299.99578
300.00326
300.00081
300.00004
299.99998
300
300
300
300
300
300
300
300
300
300
300
300
300
300
300
300
300
300
300
300
300
300
300
300
300
300
300
300
341.88215
325.01722
310.60398
302.41492
299.79237
299.65306
299.89583
299.99174
300.00318
300.00099
300.00007
299.99998
300
300
300
300
300
300
300
300
300
300
300
300
300
300
300
300
300
300
300
300
300
300
300
300
300
300
300
300
342.03134
325.49493
311.19648
302.79594
299.91103
299.65125
299.88107
299.98708
300.0029
300.00117
300.00012
299.99999
300
300
300
300
300
300
300
300
300
300
300
300
300
300
300
300
300
300
300
300
300
300
300
300
300
300
300
300
342.17291
325.94453
311.766
303.17847
300.04162
299.65592
299.867
299.98186
300.0024
300.00133
300.00017
299.99999
299.99999
300
300
300
300
300
300
300
300
300
300
300
300
300
300
300
300
300
300
300
300
300
300
300
300
300
300
300
342.3071
326.36867
312.31363
303.56115
300.18304
299.66716
299.85393
299.97616
300.00166
300.00147
300.00024
300
299.99999
300
300
300
300
300
300
300
300
300
300
300
300
300
300
300
300
300
300
300
300
300
300
300
300
300
300
300
342.43429
326.76961
312.8404
303.94284
300.33426
299.685
299.84216
299.97007
300.00067
300.00157
300.00031
300.00001
299.99999
300
300
300
300
300
300
300
300
300
300
300
300
300
300
300
300
300
300
300
300
300
300
300
300
300
300
300
342.55492
327.14934
313.34728
304.32256
300.4943
299.7094
299.83192
299.96369
299.99943
300.00162
300.00038
300.00002
299.99999
300
300
300
300
300
300
300
300
300
300
300
300
300
300
300
300
300
300
300
300
300
300
300
300
300
300
300
342.66944
327.50959
313.83522
304.69954
300.66224
299.74026
299.82347
299.95712
299.99793
300.00161
300.00045
300.00003
299.99999
300
300
300
300
300
300
300
300
300
300
300
300
300
300
300
300
300
300
300
300
300
300
300
300
300
300
300
342.77831
327.85195
314.30512
305.07309
300.83722
299.77746
299.81699
299.95046
299.99619
300.00154
300.00052
300.00005
299.99999
300
300
300
300
300
300
300
300
300
300
300
300
300
300
300
300
300
300
300
300
300
300
300
300
300
300
300
342.88197
328.17782
314.75786
305.44267
301.01844
299.82083
299.81267
299.94383
299.99421
300.00139
300.00059
300.00008
300
300
300
300
300
300
300
300
300
300
300
300
300
300
300
300
300
300
300
300
300
300
300
300
300
300
300
300
342.98082
328.48846
315.19426
305.80784
301.20515
299.87017
299.81065
299.93733
299.99202
300.00116
300.00065
300.0001
300
300
300
300
300
300
300
300
300
300
300
300
300
300
300
300
300
300
300
300
300
300
300
300
300
300
300
300
343.07522
328.78502
315.61512
306.16822
301.39666
299.92528
299.81106
299.93106
299.98963
300.00084
300.0007
300.00013
300
300
300
300
300
300
300
300
300
300
300
300
300
300
300
300
300
300
300
300
300
300
300
300
300
300
300
300
343.1655
329.06855
316.0212
306.52354
301.59235
299.98592
299.814
299.92513
299.98706
300.00042
300.00073
300.00015
300.00001
300
300
300
300
300
300
300
300
300
300
300
300
300
300
300
300
300
300
300
300
300
300
300
300
300
300
300
343.25198
329.33997
316.41322
306.87356
301.79163
300.05186
299.81955
299.91964
299.98435
299.99992
300.00074
300.00018
300.00001
300
300
300
300
300
300
300
300
300
300
300
300
300
300
300
300
300
300
300
300
300
300
300
300
300
300
300
343.33491
329.60013
316.79188
307.21811
301.99395
300.12285
299.82778
299.91468
299.98153
299.99931
300.00073
300.00021
300.00002
300
300
300
300
300
300
300
300
300
300
300
300
300
300
300
300
300
300
300
300
300
300
300
300
300
300
300
343.41454
329.8498
317.15782
307.55705
302.19883
300.19865
299.83873
299.91035
299.97862
299.99861
300.0007
300.00024
300.00003
300
300
300
300
300
300
300
300
300
300
300
300
300
300
300
300
300
300
300
300
300
300
300
300
300
300
300
343.49108
330.08968
317.51167
307.89032
302.40582
300.279
299.85243
299.90672
299.97566
299.99782
300.00064
300.00026
300.00004
300
300
300
300
300
300
300
300
300
300
300
300
300
300
300
300
300
300
300
300
300
300
300
300
300
300
300
343.56474
330.32037
317.854
308.21784
302.61449
300.36365
299.86888
299.90389
299.97269
299.99694
300.00055
300.00028
300.00005
300
300
300
300
300
300
300
300
300
300
300
300
300
300
300
300
300
300
300
300
300
300
300
300
300
300
300
343.63568
330.54246
318.18536
308.53958
302.82448
300.45237
299.8881
299.90191
299.96974
299.99597
300.00043
300.0003
300.00006
300
300
300
300
300
300
300
300
300
300
300
300
300
300
300
300
300
300
300
300
300
300
300
300
300
300
300
343.70405
330.75646
318.50626
308.85555
303.03542
300.54491
299.91007
299.90086
299.96685
299.99492
300.00027
300.00031
300.00007
300
300
300
300
300
300
300
300
300
300
300
300
300
300
300
300
300
300
300
300
300
300
300
300
300
300
300
343.77001
330.96282
318.81719
309.16574
303.247
300.64103
299.93477
299.9008
299.96406
299.9938
300.00008
300.00032
300.00008
300.00001
300
300
300
300
300
300
300
300
300
300
300
300
300
300
300
300
300
300
300
300
300
300
300
300
300
300
343.83368
331.16197
319.1186
309.4702
303.45894
300.74051
299.96217
299.90178
299.96141
299.99262
299.99985
300.00032
300.00009
300.00001
300
300
300
300
300
300
300
300
300
300
300
300
300
300
300
300
300
300
300
300
300
300
300
300
300
300
343.89518
331.3543
319.4109
309.76896
303.67096
300.84311
299.99222
299.90386
299.95893
299.99138
299.99958
300.0003
300.0001
300.00001
300
300
300
300
300
300
300
300
300
300
300
300
300
300
300
300
300
300
300
300
300
300
300
300
300
300
343.95461
331.54016
319.6945
310.06207
303.88282
300.94861
300.02489
299.90708
299.95666
299.9901
299.99927
300.00028
300.00011
300.00002
300
300
300
300
300
300
300
300
300
300
300
300
300
300
300
300
300
300
300
300
300
300
300
300
300
300
344.01207
331.71985
319.96975
310.34958
304.09431
301.05681
300.06011
299.91148
299.95464
299.98879
299.99893
300.00025
300.00012
300.00002
300
300
300
300
300
300
300
300
300
300
300
300
300
300
300
300
300
300
300
300
300
300
300
300
300
300
344.06763
331.89369
320.23701
310.63156
304.3052
301.1675
300.09784
299.91709
299.9529
299.98746
299.99855
300.00021
300.00012
300.00002
300
300
300
300
300
300
300
300
300
300
300
300
300
300
300
300
300
300
300
300
300
300
300
300
300
300
344.1214
332.06192
320.49658
310.90808
304.51532
301.28049
300.138
299.92394
299.95147
299.98613
299.99813
300.00015
300.00013
300.00003
300
300
300
300
300
300
300
300
300
300
300
300
300
300
300
300
300
300
300
300
300
300
300
300
300
300
344.17342
332.22478
320.74876
311.1792
304.7245
301.39557
300.18053
299.93205
299.95039
299.9848
299.99768
300.00008
300.00013
300.00003
300
300
300
300
300
300
300
300
300
300
300
300
300
300
300
300
300
300
300
300
300
300
300
300
300
300
344.22377
332.38251
320.99384
311.445
304.93257
301.51257
300.22536
299.94144
299.94969
299.9835
299.9972
299.99999
300.00013
300.00004
300
300
300
300
300
300
300
300
300
300
300
300
300
300
300
300
300
300
300
300
300
300
300
300
300
300
344.27251
332.5353
321.23205
311.70554
305.13939
301.6313
300.27242
299.95212
299.9494
299.98223
299.9967
299.99989
300.00013
300.00004
300.00001
300
300
300
300
300
300
300
300
300
300
300
300
300
300
300
300
300
300
300
300
300
300
300
300
300
344.31968
332.68332
321.46364
311.9609
305.34483
301.7516
300.32162
299.96411
299.94955
299.98102
299.99616
299.99978
300.00012
300.00004
300.00001
300
300
300
300
300
300
300
300
300
300
300
300
300
300
300
300
300
300
300
300
300
300
300
300
300
344.36533
332.82675
321.68882
312.21114
305.54875
301.8733
300.3729
299.97741
299.95017
299.97987
299.99561
299.99965
300.00011
300.00005
300.00001
300
300
300
300
300
300
300
300
300
300
300
300
300
300
300
300
300
300
300
300
300
300
300
300
300
344.4095
332.96573
321.90779
312.45633
305.75106
301.99623
300.42617
299.99201
299.95127
299.9788
299.99504
299.9995
300.00009
300.00005
300.00001
300
300
300
300
300
300
300
300
300
300
300
300
300
300
300
300
300
300
300
300
300
300
300
300
300
344.45222
333.10039
322.12073
312.69654
305.95163
302.12025
300.48134
300.00793
299.95289
299.97783
299.99445
299.99934
300.00007
300.00005
300.00001
300
300
300
300
300
300
300
300
300
300
300
300
300
300
300
300
300
300
300
300
300
300
300
300
300
344.49353
333.23084
322.32781
312.93182
306.15036
302.2452
300.53834
300.02515
299.95504
299.97697
299.99386
299.99917
300.00005
300.00005
300.00001
300
300
300
300
300
300
300
300
300
300
300
300
300
300
300
300
300
300
300
300
300
300
300
300
300
344.53345
333.35719
322.52916
313.16222
306.34716
302.37094
300.59708
300.04366
299.95774
299.97623
299.99326
299.99898
300.00001
300.00005
300.00001
300
300
300
300
300
300
300
300
300
300
300
300
300
300
300
300
300
300
300
300
300
300
300
300
300
344.57199
333.47953
322.72493
313.3878
306.54195
302.49733
300.65747
300.06344
299.96102
299.97564
299.99266
299.99878
299.99998
300.00005
300.00002
300
300
300
300
300
300
300
300
300
300
300
300
300
300
300
300
300
300
300
300
300
300
300
300
300
344.60917
333.59793
322.91524
313.6086
306.73462
302.62423
300.71944
300.0845
299.96489
299.97521
299.99208
299.99856
299.99994
300.00005
300.00002
300
300
300
300
300
300
300
300
300
300
300
300
300
300
300
300
300
300
300
300
300
300
300
300
300
344.64499
333.71244
323.10017
313.82467
306.92511
302.7515
300.78288
300.10679
299.96936
299.97494
299.9915
299.99834
299.99989
300.00004
300.00002
300
300
300
300
300
300
300
300
300
300
300
300
300
300
300
300
300
300
300
300
300
300
300
300
300
344.67947
333.82311
323.27983
314.03602
307.11332
302.87903
300.84772
300.13031
299.97444
299.97486
299.99095
299.9981
299.99983
300.00004
300.00002
300
300
300
300
300
300
300
300
300
300
300
300
300
300
300
300
300
300
300
300
300
300
300
300
300
344.7126
333.92997
323.45428
314.24269
307.29919
303.00667
300.91387
300.15503
299.98015
299.97498
299.99042
299.99785
299.99977
300.00003
300.00002
300
300
300
300
300
300
300
300
300
300
300
300
300
300
300
300
300
300
300
300
300
300
300
300
300
344.74437
334.03305
323.62358
314.4447
307.48262
303.13432
300.98124
300.18093
299.98649
299.9753
299.98992
299.9976
299.99971
300.00002
300.00002
300
300
300
300
300
300
300
300
300
300
300
300
300
300
300
300
300
300
300
300
300
300
300
300
300
344.77477
334.13234
323.78777
314.64206
307.66355
303.26184
301.04973
300.20796
299.99347
299.97585
299.98946
299.99734
299.99963
300.00001
300.00002
300.00001
300
300
300
300
300
300
300
300
300
300
300
300
300
300
300
300
300
300
300
300
300
300
300
300
344.80379
334.22785
323.94688
314.83477
307.8419
303.38911
301.11926
300.23611
300.00109
299.97663
299.98904
299.99708
299.99956
300
300.00002
300.00001
300
300
300
300
300
300
300
300
300
300
300
300
300
300
300
300
300
300
300
300
300
300
300
300
344.83142
334.31954
324.10092
315.02282
308.01759
303.51603
301.18974
300.26533
300.00936
299.97765
299.98868
299.99682
299.99947
299.99998
300.00002
300.00001
300
300
300
300
300
300
300
300
300
300
300
300
300
300
300
300
300
300
300
300
300
300
300
300
344.85762
334.40738
324.24989
315.2062
308.19055
303.64247
301.26108
300.29559
300.01828
299.97893
299.98837
299.99656
299.99938
299.99996
300.00002
300.00001
300
300
300
300
300
300
300
300
300
300
300
300
300
300
300
300
300
300
300
300
300
300
300
300
344.88239
334.49134
324.39376
315.38488
308.36068
303.76831
301.33318
300.32686
300.02784
299.98048
299.98813
299.99629
299.99929
299.99994
300.00001
300.00001
300
300
300
300
300
300
300
300
300
300
300
300
300
300
300
300
300
300
300
300
300
300
300
300
344.9057
334.57135
324.5325
315.55883
308.52792
303.89345
301.40596
300.35909
300.03804
299.9823
299.98796
299.99604
299.99919
299.99992
300.00001
300.00001
300
300
300
300
300
300
300
300
300
300
300
300
300
300
300
300
300
300
300
300
300
300
300
300
344.92752
334.64736
324.66607
315.72801
308.69216
304.01776
301.47932
300.39223
300.04888
299.98439
299.98787
299.99579
299.99909
299.9999
300.00001
300.00001
300
300
300
300
300
300
300
300
300
300
300
300
300
300
300
300
300
300
300
300
300
300
300
300
344.94784
334.7193
324.79439
315.89236
308.85333
304.14113
301.55317
300.42625
300.06036
299.98678
299.98786
299.99555
299.99898
299.99987
300
300.00001
300
300
300
300
300
300
300
300
300
300
300
300
300
300
300
300
300
300
300
300
300
300
300
300
344.96664
334.78711
324.9174
316.05181
309.01133
304.26345
301.62741
300.4611
300.07245
299.98946
299.98794
299.99533
299.99887
299.99984
300
300.00001
300
300
300
300
300
300
300
300
300
300
300
300
300
300
300
300
300
300
300
300
300
300
300
300
344.98391
334.8507
325.03501
316.20628
309.16606
304.38459
301.70195
300.49672
300.08516
299.99244
299.98811
299.99512
299.99876
299.99981
299.99999
300.00001
300
300
300
300
300
300
300
300
300
300
300
300
300
300
300
300
300
300
300
300
300
300
300
300
344.99964
334.91003
325.14711
316.35568
309.31741
304.50446
301.77669
300.53307
300.09847
299.99572
299.98838
299.99493
299.99865
299.99977
299.99999
300.00001
300
300
300
300
300
300
300
300
300
300
300
300
300
300
300
300
300
300
300
300
300
300
300
300
345.01383
334.96503
325.25362
316.49992
309.46529
304.62291
301.85154
300.5701
300.11236
299.99931
299.98877
299.99476
299.99853
299.99974
299.99998
300.00001
300
300
300
300
300
300
300
300
300
300
300
300
300
300
300
300
300
300
300
300
300
300
300
300
345.02651
335.01566
325.35441
316.63888
309.60957
304.73984
301.9264
300.60775
300.12682
300.0032
299.98926
299.99461
299.99842
299.9997
299.99997
300
300
300
300
300
300
300
300
300
300
300
300
300
300
300
300
300
300
300
300
300
300
300
300
300
345.03769
335.0619
325.44939
316.77245
309.75013
304.85512
302.00116
300.64596
300.14183
300.00741
299.98987
299.99449
299.99831
299.99966
299.99996
300
300
300
300
300
300
300
300
300
300
300
300
300
300
300
300
300
300
300
300
300
300
300
300
300
345.04741
335.10375
325.53845
316.9005
309.88686
304.96863
302.07573
300.68468
300.15738
300.01192
299.99059
299.9944
299.9982
299.99962
299.99995
300
300
300
300
300
300
300
300
300
300
300
300
300
300
300
300
300
300
300
300
300
300
300
300
300
345.05571
335.14125
325.62152
317.02291
310.01963
305.08025
302.15001
300.72384
300.17343
300.01675
299.99145
299.99435
299.99809
299.99957
299.99994
300
300
300
300
300
300
300
300
300
300
300
300
300
300
300
300
300
300
300
300
300
300
300
300
300
345.06267
335.17444
325.69851
317.13953
310.14829
305.18985
302.2239
300.7634
300.18997
300.02188
299.99243
299.99433
299.99799
299.99953
299.99993
300
300
300
300
300
300
300
300
300
300
300
300
300
300
300
300
300
300
300
300
300
300
300
300
300
345.06836
335.20344
325.76939
317.25025
310.27271
305.29729
302.29729
300.80327
300.20697
300.02731
299.99354
299.99434
299.99789
299.99948
299.99992
300
300
300
300
300
300
300
300
300
300
300
300
300
300
300
300
300
300
300
300
300
300
300
300
300
345.07286
335.22837
325.83414
317.35495
310.39277
305.40246
302.37008
300.84341
300.22441
300.03304
299.99478
299.9944
299.9978
299.99943
299.9999
299.99999
300
300
300
300
300
300
300
300
300
300
300
300
300
300
300
300
300
300
300
300
300
300
300
300
345.07628
335.24942
325.89278
317.45352
310.50831
305.50523
302.44216
300.88375
300.24226
300.03907
299.99617
299.9945
299.99772
299.99939
299.99989
299.99999
300
300
300
300
300
300
300
300
300
300
300
300
300
300
300
300
300
300
300
300
300
300
300
300
345.07872
335.2668
325.94539
317.54588
310.61922
305.60547
302.51344
300.92421
300.26049
300.04538
299.99769
299.99464
299.99765
299.99934
299.99987
299.99999
300
300
300
300
300
300
300
300
300
300
300
300
300
300
300
300
300
300
300
300
300
300
300
300
345.08031
335.28076
325.99209
317.63196
310.72536
305.70305
302.58382
300.96475
300.27907
300.05197
299.99934
299.99483
299.99758
299.99929
299.99986
299.99998
300
300
300
300
300
300
300
300
300
300
300
300
300
300
300
300
300
300
300
300
300
300
300
300
345.08116
335.29161
326.03306
317.71174
310.82663
305.79786
302.65319
301.00529
300.29797
300.05883
300.00114
299.99507
299.99753
299.99925
299.99984
299.99998
300
300
300
300
300
300
300
300
300
300
300
300
300
300
300
300
300
300
300
300
300
300
300
300
345.08141
335.29967
326.06853
317.78525
310.92293
305.88978
302.72146
301.04576
300.31716
300.06596
300.00308
299.99537
299.99749
299.9992
299.99982
299.99997
300
300
300
300
300
300
300
300
300
300
300
300
300
300
300
300
300
300
300
300
300
300
300
300
345.08118
335.3053
326.09881
317.85253
311.01419
305.97871
302.78854
301.08611
300.33661
300.07334
300.00516
299.99571
299.99747
299.99916
299.9998
299.99997
300
300
300
300
300
300
300
300
300
300
300
300
300
300
300
300
300
300
300
300
300
300
300
300
345.0806
335.30886
326.12426
317.91373
311.10037
306.06455
302.85433
301.12627
300.35628
300.08096
300.00738
299.99611
299.99745
299.99912
299.99978
299.99996
300
300
300
300
300
300
300
300
300
300
300
300
300
300
300
300
300
300
300
300
300
300
300
300
345.07976
335.31073
326.14531
317.96901
311.18146
306.14723
302.91875
301.16618
300.37614
300.08881
300.00973
299.99657
299.99746
299.99908
299.99977
299.99996
300
300
300
300
300
300
300
300
300
300
300
300
300
300
300
300
300
300
300
300
300
300
300
300
345.07879
335.3113
326.16241
318.01861
311.25747
306.22668
302.98173
301.20578
300.39616
300.09688
300.01222
299.99709
299.99748
299.99904
299.99975
299.99995
299.99999
300
300
300
300
300
300
300
300
300
300
300
300
300
300
300
300
300
300
300
300
300
300
300
345.07777
335.31093
326.17607
318.06285
311.32848
306.30287
303.0432
301.24503
300.41631
300.10515
300.01485
299.99766
299.99752
299.99901
299.99973
299.99995
299.99999
300
300
300
300
300
300
300
300
300
300
300
300
300
300
300
300
300
300
300
300
300
300
300
345.07676
335.30996
326.18685
318.10209
311.3946
306.37576
303.10311
301.28385
300.43656
300.11362
300.0176
299.99829
299.99758
299.99898
299.99971
299.99994
299.99999
300
300
300
300
300
300
300
300
300
300
300
300
300
300
300
300
300
300
300
300
300
300
300
345.07584
335.3087
326.1953
318.13676
311.456
306.44537
303.16141
301.32222
300.45687
300.12227
300.02049
299.99898
299.99765
299.99895
299.99969
299.99993
299.99999
300
300
300
300
300
300
300
300
300
300
300
300
300
300
300
300
300
300
300
300
300
300
300
345.07503
335.30741
326.20195
318.16733
311.51286
306.51172
303.21805
301.36009
300.47722
300.13108
300.0235
299.99974
299.99775
299.99893
299.99967
299.99993
299.99999
300
300
300
300
300
300
300
300
300
300
300
300
300
300
300
300
300
300
300
300
300
300
300
345.07436
335.30633
326.20737
318.19433
311.56549
306.57492
303.27307
301.39744
300.4976
300.14006
300.02663
300.00055
299.99787
299.99892
299.99965
299.99992
299.99999
300
300
300
300
300
300
300
300
300
300
300
300
300
300
300
300
300
300
300
300
300
300
300
345.07383
335.30555
326.21196
318.21821
311.61402
306.63482
303.32622
301.43407
300.51787
300.14913
300.02987
300.00142
299.99801
299.99891
299.99964
299.99991
299.99998
300
300
300
300
300
300
300
300
300
300
300
300
300
300
300
300
300
300
300
300
300
300
300
345.07354
335.30544
326.21651
318.24
311.65965
306.69279
303.37878
301.47094
300.53862
300.15859
300.03332
300.00238
299.99818
299.9989
299.99962
299.9999
299.99998
300
300
300
300
300
300
300
300
300
300
300
300
300
300
300
300
300
300
300
300
300
300
300
345.07311
335.30512
326.22004
318.25775
311.69793
306.74221
303.42402
301.50289
300.55671
300.1669
300.03638
300.00324
299.99834
299.9989
299.99961
299.9999
299.99998
300
300
300
300
300
300
300
300
300
300
300
300
300
300
300
300
300
300
300
300
300
300
300
345.07462
335.30858
326.22879
318.2852
311.75601
306.81999
303.49783
301.55665
300.58802
300.1817
300.04203
300.00492
299.99869
299.99892
299.99959
299.99989
299.99998
300
300
300
300
300
300
300
300
300
300
300
300
300
300
300
300
300
300
300
300
300
300
300
)
;

boundaryField
{
    wall
    {
        type            fixedValue;
        value           uniform 350;
    }
    sides
    {
        type            zeroGradient;
    }
    frontAndBack
    {
        type            empty;
    }
    inlet
    {
        type            fixedValue;
        value           uniform 300;
    }
    outlet
    {
        type            zeroGradient;
    }
}


// ************************************************************************* //
