/*--------------------------------*- C++ -*----------------------------------*\
  =========                 |
  \\      /  F ield         | OpenFOAM: The Open Source CFD Toolbox
   \\    /   O peration     | Website:  https://openfoam.org
    \\  /    A nd           | Version:  10
     \\/     M anipulation  |
\*---------------------------------------------------------------------------*/
FoamFile
{
    format      ascii;
    class       volVectorField;
    location    "0.28";
    object      U;
}
// * * * * * * * * * * * * * * * * * * * * * * * * * * * * * * * * * * * * * //

dimensions      [0 1 -1 0 0 0 0];

internalField   nonuniform List<vector> 
4000
(
(0 0.01863746 0.47773156)
(0 0.023510007 0.50886061)
(0 0.0081668593 0.50052522)
(0 0.0056146179 0.50033634)
(0 0.0042546304 0.50025746)
(0 0.0032549438 0.50016898)
(0 0.0025560866 0.50011969)
(0 0.0020545743 0.50009013)
(0 0.0016765677 0.50006981)
(0 0.0013822237 0.50005539)
(0 0.0011471698 0.50004499)
(0 0.00095506744 0.50003733)
(0 0.00079466234 0.5000316)
(0 0.00065797894 0.50002727)
(0 0.00053918901 0.50002399)
(0 0.00043391196 0.50002151)
(0 0.00033876052 0.50001967)
(0 0.00025103285 0.50001834)
(0 0.00016849638 0.50001744)
(0 8.9229354e-05 0.50001694)
(0 1.1498404e-05 0.50001679)
(0 -6.6348321e-05 0.50001699)
(0 -0.00014597294 0.50001755)
(0 -0.00022913996 0.5000185)
(0 -0.00031782668 0.50001991)
(0 -0.00041435415 0.50002185)
(0 -0.00052155869 0.50002446)
(0 -0.00064303141 0.50002793)
(0 -0.00078346588 0.50003252)
(0 -0.00094918801 0.50003863)
(0 -0.0011490073 0.50004688)
(0 -0.0013955818 0.50005824)
(0 -0.0017076577 0.50007414)
(0 -0.0021155838 0.50009709)
(0 -0.0026752736 0.50013481)
(0 -0.0034688359 0.50020237)
(0 -0.0045610467 0.50027142)
(0 -0.0065852263 0.50043364)
(0 -0.017659657 0.50675408)
(0 -0.013590225 0.47975558)
(0 0.037432697 0.44796925)
(0 0.050955771 0.53232616)
(0 0.021969345 0.5080429)
(0 0.016135665 0.50357319)
(0 0.012416101 0.50242317)
(0 0.0095159658 0.501623)
(0 0.0075206231 0.50115662)
(0 0.0060698831 0.50086594)
(0 0.0049645483 0.50066802)
(0 0.0041000863 0.50052903)
(0 0.0034075472 0.50042906)
(0 0.0028399835 0.50035556)
(0 0.0023650218 0.50030067)
(0 0.0019595787 0.50025927)
(0 0.0016066943 0.50022793)
(0 0.0012935738 0.50020427)
(0 0.0010102926 0.50018666)
(0 0.00074891343 0.50017399)
(0 0.00050286251 0.50016548)
(0 0.00026647096 0.50016065)
(0 3.4618638e-05 0.50015922)
(0 -0.00019757315 0.50016112)
(0 -0.00043501316 0.50016647)
(0 -0.00068291115 0.50017557)
(0 -0.00094709692 0.50018898)
(0 -0.0012343991 0.50020753)
(0 -0.0015531413 0.50023247)
(0 -0.0019138291 0.50026558)
(0 -0.0023301429 0.5003095)
(0 -0.0028204221 0.5003681)
(0 -0.0034100409 0.50044735)
(0 -0.0041353748 0.5005567)
(0 -0.0050495017 0.50071125)
(0 -0.0062322859 0.50093659)
(0 -0.0078326105 0.50129435)
(0 -0.010126261 0.50191049)
(0 -0.013107337 0.50282505)
(0 -0.017426717 0.50608114)
(0 -0.038759453 0.52526813)
(0 -0.027894867 0.4502162)
(0 0.039888303 0.40982051)
(0 0.061428201 0.54930816)
(0 0.031983837 0.52188198)
(0 0.024355582 0.51008057)
(0 0.01919371 0.50658859)
(0 0.014977237 0.50452811)
(0 0.012006792 0.50327144)
(0 0.0097719712 0.50245844)
(0 0.008036532 0.50190113)
(0 0.0066648296 0.50150876)
(0 0.0055566436 0.50122555)
(0 0.0046424402 0.50101681)
(0 0.0038734821 0.50086066)
(0 0.003214374 0.50074275)
(0 0.0026387823 0.50065337)
(0 0.0021266545 0.50058586)
(0 0.0016623145 0.5005356)
(0 0.0012331431 0.50049939)
(0 0.00082863396 0.50047507)
(0 0.00043968906 0.50046124)
(0 5.8067846e-05 0.50045715)
(0 -0.00032409029 0.50046258)
(0 -0.00071469303 0.50047786)
(0 -0.0011221189 0.50050388)
(0 -0.0015557121 0.50054217)
(0 -0.0020263664 0.50059513)
(0 -0.0025472793 0.50066624)
(0 -0.0031349828 0.5007606)
(0 -0.0038108059 0.50088558)
(0 -0.0046029874 0.50105212)
(0 -0.0055498811 0.50127674)
(0 -0.0067054663 0.50158559)
(0 -0.0081469426 0.50202076)
(0 -0.0099783971 0.50265067)
(0 -0.012372645 0.503615)
(0 -0.015717641 0.50519907)
(0 -0.019873973 0.50785378)
(0 -0.025187629 0.51641215)
(0 -0.047418071 0.53912716)
(0 -0.030854076 0.41487937)
(0 0.034791625 0.36172997)
(0 0.063839032 0.55456332)
(0 0.039380554 0.5374714)
(0 0.03008352 0.51849265)
(0 0.024112733 0.51197735)
(0 0.019279704 0.50849952)
(0 0.015736251 0.50626434)
(0 0.012954216 0.50475555)
(0 0.010743636 0.50370455)
(0 0.0089678214 0.50295626)
(0 0.0075137412 0.50241123)
(0 0.0063017313 0.50200696)
(0 0.0052739874 0.50170318)
(0 0.0043872536 0.50147296)
(0 0.0036087142 0.50129795)
(0 0.0029129866 0.50116548)
(0 0.0022799657 0.50106668)
(0 0.0016932923 0.50099542)
(0 0.0011392271 0.5009475)
(0 0.00060579167 0.50092024)
(0 8.208656e-05 0.50091216)
(0 -0.00044230764 0.50092285)
(0 -0.00097787066 0.50095294)
(0 -0.0015356713 0.50100415)
(0 -0.0021279874 0.50107945)
(0 -0.0027690233 0.50118344)
(0 -0.0034758165 0.50132283)
(0 -0.0042694431 0.50150729)
(0 -0.0051766815 0.50175083)
(0 -0.0062323093 0.50207392)
(0 -0.0074821931 0.50250703)
(0 -0.0089885634 0.50309717)
(0 -0.010838788 0.50391905)
(0 -0.013139425 0.50508904)
(0 -0.016026132 0.50680662)
(0 -0.019901473 0.50946719)
(0 -0.024733314 0.51427454)
(0 -0.031115207 0.52824681)
(0 -0.050321136 0.54407139)
(0 -0.028438905 0.37237924)
(0 0.027424314 0.31484309)
(0 0.06231504 0.55024059)
(0 0.044614782 0.5514677)
(0 0.03398224 0.52748821)
(0 0.027464245 0.51772252)
(0 0.022455313 0.51291993)
(0 0.01863689 0.50973157)
(0 0.015528168 0.50749279)
(0 0.013006169 0.50590012)
(0 0.010942065 0.5047471)
(0 0.0092244769 0.50389636)
(0 0.0077745523 0.50325941)
(0 0.0065323057 0.50277735)
(0 0.0054513129 0.50240998)
(0 0.0044955263 0.50212948)
(0 0.0036364812 0.50191641)
(0 0.0028512346 0.50175709)
(0 0.0021208483 0.50164192)
(0 0.0014292294 0.50156436)
(0 0.00076221918 0.50152018)
(0 0.00010685422 0.50150705)
(0 -0.00054929476 0.50152434)
(0 -0.0012187254 0.50157301)
(0 -0.0019145825 0.50165578)
(0 -0.0026513429 0.50177731)
(0 -0.0034455848 0.50194477)
(0 -0.0043169335 0.50216856)
(0 -0.0052892728 0.50246355)
(0 -0.006392352 0.50285101)
(0 -0.0076639452 0.50336158)
(0 -0.0091523148 0.5040399)
(0 -0.010919896 0.5049525)
(0 -0.013053523 0.50620221)
(0 -0.015656991 0.50794391)
(0 -0.01881815 0.51040395)
(0 -0.022898506 0.51405437)
(0 -0.028179532 0.52114502)
(0 -0.035709656 0.53932619)
(0 -0.050478541 0.54155418)
(0 -0.024086902 0.33055598)
(0 0.019837971 0.27519752)
(0 0.057990234 0.53974643)
(0 0.047364219 0.56256482)
(0 0.036477963 0.53660467)
(0 0.029636429 0.52350724)
(0 0.024676392 0.51740345)
(0 0.020774457 0.51336321)
(0 0.017509927 0.51044477)
(0 0.014814303 0.50832449)
(0 0.012566655 0.50676214)
(0 0.010665461 0.50559315)
(0 0.0090387262 0.5047084)
(0 0.0076288357 0.50403296)
(0 0.0063899294 0.5035146)
(0 0.0052855493 0.50311662)
(0 0.0042862277 0.50281297)
(0 0.0033677375 0.50258511)
(0 0.002509744 0.50241997)
(0 0.0016947246 0.50230851)
(0 0.00090709445 0.50224492)
(0 0.00013247824 0.50222597)
(0 -0.00064295534 0.50225075)
(0 -0.0014331092 0.50232064)
(0 -0.0022525358 0.50243935)
(0 -0.0031171286 0.50261333)
(0 -0.0040448727 0.50285238)
(0 -0.0050567414 0.50317062)
(0 -0.0061777984 0.50358806)
(0 -0.0074385914 0.50413288)
(0 -0.008877047 0.50484501)
(0 -0.01054043 0.50578146)
(0 -0.01248703 0.50702452)
(0 -0.014797063 0.50869736)
(0 -0.017572307 0.51098159)
(0 -0.020866742 0.51411958)
(0 -0.024976643 0.51872966)
(0 -0.030511439 0.52822944)
(0 -0.038632977 0.54872373)
(0 -0.048511004 0.53398275)
(0 -0.019067667 0.2939361)
(0 0.013083251 0.24255457)
(0 0.051799101 0.5252004)
(0 0.047709949 0.57024857)
(0 0.037757542 0.5455251)
(0 0.03085085 0.52928879)
(0 0.026073934 0.52180186)
(0 0.022238336 0.51699817)
(0 0.018953983 0.51347377)
(0 0.016193691 0.5108653)
(0 0.013849652 0.50891285)
(0 0.011835373 0.50743311)
(0 0.01008827 0.50630104)
(0 0.0085557223 0.5054289)
(0 0.0071949826 0.50475455)
(0 0.0059712531 0.50423361)
(0 0.0048557184 0.50383416)
(0 0.0038241928 0.50353322)
(0 0.0028560074 0.50331442)
(0 0.0019330771 0.50316641)
(0 0.0010391214 0.50308179)
(0 0.00015899955 0.50305647)
(0 -0.00072191306 0.5030893)
(0 -0.0016183122 0.50318201)
(0 -0.0025455002 0.50333932)
(0 -0.0035200396 0.50356937)
(0 -0.0045604324 0.50388444)
(0 -0.0056879144 0.50430213)
(0 -0.0069273972 0.50484708)
(0 -0.008308584 0.50555354)
(0 -0.0098675432 0.5064693)
(0 -0.011648468 0.50766151)
(0 -0.013703603 0.50922502)
(0 -0.016102454 0.51129781)
(0 -0.018940313 0.51407922)
(0 -0.022248546 0.51783809)
(0 -0.026267984 0.52346723)
(0 -0.031851687 0.53537478)
(0 -0.039762831 0.55589625)
(0 -0.044896543 0.52282089)
(0 -0.014091387 0.26264197)
(0 0.0077701898 0.21554067)
(0 0.044826149 0.50800972)
(0 0.046256131 0.57438091)
(0 0.038035968 0.55375152)
(0 0.031288496 0.53496076)
(0 0.026768904 0.52603058)
(0 0.023117189 0.52053878)
(0 0.019921185 0.51648865)
(0 0.017182341 0.5134421)
(0 0.014813444 0.51113115)
(0 0.012746064 0.50936008)
(0 0.010928152 0.5079916)
(0 0.009313807 0.5069281)
(0 0.0078650643 0.50609968)
(0 0.0065501825 0.50545571)
(0 0.005342208 0.50495937)
(0 0.0042180338 0.50458386)
(0 0.0031575326 0.50430994)
(0 0.0021428052 0.50412416)
(0 0.0011575312 0.50401771)
(0 0.00018639928 0.50398571)
(0 -0.00078544184 0.50402679)
(0 -0.0017729119 0.504143)
(0 -0.0027914617 0.50433997)
(0 -0.0038576585 0.50462736)
(0 -0.0049897624 0.50501968)
(0 -0.0062083883 0.50553754)
(0 -0.0075372712 0.50620953)
(0 -0.0090040914 0.507075)
(0 -0.010641642 0.50818809)
(0 -0.0124895 0.50962405)
(0 -0.014592797 0.51148793)
(0 -0.017007731 0.51392862)
(0 -0.019815959 0.51715485)
(0 -0.02303344 0.52147966)
(0 -0.026882731 0.52818205)
(0 -0.032354655 0.54221998)
(0 -0.039407201 0.56050132)
(0 -0.040330999 0.50908043)
(0 -0.0097087652 0.23585321)
(0 0.0040050285 0.19355586)
(0 0.037899899 0.48948667)
(0 0.043687835 0.57524013)
(0 0.037564826 0.56084541)
(0 0.031155079 0.54036151)
(0 0.026914972 0.5300118)
(0 0.023514819 0.52390233)
(0 0.020480894 0.51941321)
(0 0.017827177 0.51598852)
(0 0.015489709 0.51335973)
(0 0.013418164 0.51132499)
(0 0.011571192 0.50973846)
(0 0.0099106351 0.50849548)
(0 0.0084042605 0.50752039)
(0 0.0070242426 0.50675781)
(0 0.0057463134 0.50616703)
(0 0.0045491943 0.50571819)
(0 0.0034139705 0.50538966)
(0 0.0023235315 0.50516624)
(0 0.0012620659 0.50503794)
(0 0.00021460378 0.50499917)
(0 -0.000833438 0.50504837)
(0 -0.0018967069 0.50518789)
(0 -0.0029902864 0.50542412)
(0 -0.0041301944 0.50576802)
(0 -0.0053338401 0.50623597)
(0 -0.0066205395 0.50685106)
(0 -0.0080120981 0.5076451)
(0 -0.0095333682 0.50866144)
(0 -0.011212945 0.50995916)
(0 -0.013084691 0.51161958)
(0 -0.015186121 0.51375535)
(0 -0.017559871 0.51652225)
(0 -0.020270085 0.5201313)
(0 -0.023324624 0.52496274)
(0 -0.026965525 0.53273943)
(0 -0.032207131 0.54839039)
(0 -0.037999149 0.56254243)
(0 -0.035417652 0.49378813)
(0 -0.0062011321 0.2132469)
(0 0.0015511717 0.17613284)
(0 0.031500041 0.47076105)
(0 0.040533253 0.57338571)
(0 0.036559995 0.56659887)
(0 0.030638299 0.54537893)
(0 0.02667253 0.53370509)
(0 0.023543852 0.52703289)
(0 0.020711024 0.52218917)
(0 0.018183382 0.51845211)
(0 0.015917462 0.51555204)
(0 0.013878838 0.51328678)
(0 0.012036078 0.51150571)
(0 0.010358885 0.5100998)
(0 0.0088210058 0.50898953)
(0 0.007398912 0.5081162)
(0 0.0060714923 0.50743625)
(0 0.0048197757 0.50691753)
(0 0.003626526 0.50653658)
(0 0.0024758687 0.50627682)
(0 0.0013529292 0.50612727)
(0 0.00024349034 0.50608183)
(0 -0.00086635875 0.50613876)
(0 -0.0019905878 0.50630063)
(0 -0.0031434987 0.50657448)
(0 -0.0043401286 0.50697231)
(0 -0.0055965836 0.50751194)
(0 -0.0069304061 0.5082184)
(0 -0.0083609809 0.50912593)
(0 -0.0099098736 0.51028083)
(0 -0.011601089 0.51174564)
(0 -0.013462348 0.51360574)
(0 -0.015523714 0.51597858)
(0 -0.017815814 0.51902272)
(0 -0.020385583 0.52294916)
(0 -0.023240261 0.52823484)
(0 -0.026660354 0.53703983)
(0 -0.031570384 0.55365869)
(0 -0.035909628 0.56230625)
(0 -0.030556066 0.47788526)
(0 -0.0035914916 0.19460337)
(0 7.6789285e-05 0.16252419)
(0 0.025870858 0.4525995)
(0 0.03716062 0.56943318)
(0 0.035192423 0.57098934)
(0 0.029878343 0.54996352)
(0 0.026174616 0.53711449)
(0 0.023306667 0.52991312)
(0 0.020688086 0.52478509)
(0 0.018308349 0.52079919)
(0 0.01613908 0.51767517)
(0 0.014158987 0.5152145)
(0 0.012345214 0.51326498)
(0 0.010674688 0.5117154)
(0 0.0091267947 0.51048404)
(0 0.0076822837 0.50951013)
(0 0.0063233509 0.5087483)
(0 0.0050335627 0.5081648)
(0 0.0037976352 0.50773487)
(0 0.0026012255 0.50744091)
(0 0.0014306988 0.50727127)
(0 0.00027289549 0.50721939)
(0 -0.00088511736 0.50728343)
(0 -0.0020563249 0.50746613)
(0 -0.0032539413 0.50777501)
(0 -0.0044917169 0.50822282)
(0 -0.005784157 0.50882847)
(0 -0.0071467531 0.50961836)
(0 -0.0085962289 0.51062838)
(0 -0.010150723 0.51190676)
(0 -0.011829717 0.51351823)
(0 -0.013655 0.51555045)
(0 -0.015649785 0.51812318)
(0 -0.017834706 0.5213946)
(0 -0.020242133 0.52557914)
(0 -0.022885654 0.53128183)
(0 -0.026083338 0.5410307)
(0 -0.030574998 0.55793396)
(0 -0.03343193 0.56018794)
(0 -0.025998044 0.46206076)
(0 -0.0017655515 0.17946285)
(0 -0.00071791881 0.1519065)
(0 0.021108529 0.43543383)
(0 0.033820289 0.56393145)
(0 0.033605164 0.57408964)
(0 0.02897589 0.55409461)
(0 0.025520797 0.54026424)
(0 0.022886903 0.53255349)
(0 0.020479042 0.52719299)
(0 0.018255093 0.52301368)
(0 0.016195655 0.51970957)
(0 0.01429 0.51708736)
(0 0.012522369 0.51499564)
(0 0.010875869 0.5133225)
(0 0.009334867 0.51198531)
(0 0.0078840822 0.51092229)
(0 0.0065089178 0.51008705)
(0 0.0051955014 0.5094449)
(0 0.003930609 0.50897027)
(0 0.0027015866 0.50864489)
(0 0.0014962253 0.50845663)
(0 0.0003026241 0.50839866)
(0 -0.00089096389 0.50846903)
(0 -0.0020963301 0.50867063)
(0 -0.0033253995 0.50901127)
(0 -0.0045904495 0.50950424)
(0 -0.0059042268 0.51016915)
(0 -0.007280067 0.51103325)
(0 -0.0087320041 0.51213341)
(0 -0.010274849 0.51351894)
(0 -0.011923917 0.5152557)
(0 -0.013695654 0.51743232)
(0 -0.015607215 0.52016897)
(0 -0.017671064 0.52362155)
(0 -0.019908665 0.52801575)
(0 -0.022346212 0.53410984)
(0 -0.025325428 0.54468106)
(0 -0.029336134 0.56120677)
(0 -0.030797609 0.55658268)
(0 -0.021897171 0.44675292)
(0 -0.00056497536 0.16723816)
(0 -0.0010700447 0.14358242)
(0 0.017203917 0.41947818)
(0 0.030667865 0.55733982)
(0 0.031916142 0.57602095)
(0 0.028005021 0.55776457)
(0 0.024784619 0.54318022)
(0 0.022351024 0.53497672)
(0 0.020139539 0.52941877)
(0 0.018069394 0.52509158)
(0 0.016124217 0.52164582)
(0 0.014301389 0.51889287)
(0 0.012590756 0.51668362)
(0 0.010980461 0.51490651)
(0 0.0094590658 0.51347882)
(0 0.0080147945 0.51233852)
(0 0.0066359926 0.51143886)
(0 0.0053112249 0.51074475)
(0 0.0040293044 0.51023016)
(0 0.0027793086 0.5098765)
(0 0.0015505382 0.50967133)
(0 0.00033245873 0.50960767)
(0 -0.00088537191 0.50968351)
(0 -0.0021134321 0.5099018)
(0 -0.0033622511 0.51027056)
(0 -0.0046425504 0.51080335)
(0 -0.0059652778 0.51152017)
(0 -0.0073416406 0.5124487)
(0 -0.0087831078 0.51362626)
(0 -0.010301419 0.51510254)
(0 -0.011908213 0.51694373)
(0 -0.013615364 0.51923856)
(0 -0.01543487 0.52210621)
(0 -0.017372717 0.52569963)
(0 -0.019443499 0.53026596)
(0 -0.021690899 0.5367306)
(0 -0.024459859 0.54797079)
(0 -0.027955496 0.56352097)
(0 -0.028177246 0.55185217)
(0 -0.018327623 0.4322264)
(0 0.00016866864 0.15738328)
(0 -0.0011531495 0.13700057)
(0 0.014079534 0.40481291)
(0 0.027783404 0.55003257)
(0 0.030213409 0.57693073)
(0 0.027018154 0.56097984)
(0 0.02401908 0.54588638)
(0 0.021750914 0.5372098)
(0 0.019714775 0.53147556)
(0 0.017789594 0.52703615)
(0 0.015956878 0.52348133)
(0 0.014219632 0.52062463)
(0 0.012571878 0.51832011)
(0 0.011005678 0.51645718)
(0 0.0095129828 0.51495358)
(0 0.0080849843 0.51374757)
(0 0.0067126135 0.51279249)
(0 0.0053866546 0.5120532)
(0 0.0040978432 0.51150359)
(0 0.0028369425 0.51112492)
(0 0.001594764 0.51090466)
(0 0.00036216908 0.51083574)
(0 -0.00086993756 0.51091613)
(0 -0.002110679 0.5111488)
(0 -0.0033691615 0.51154184)
(0 -0.0046545524 0.51210894)
(0 -0.0059760493 0.5128702)
(0 -0.0073428529 0.51385341)
(0 -0.008764091 0.51509589)
(0 -0.010248782 0.51664726)
(0 -0.011805444 0.51857344)
(0 -0.013442209 0.52096263)
(0 -0.015166912 0.52393216)
(0 -0.016980711 0.52763253)
(0 -0.01889523 0.53234347)
(0 -0.02097429 0.53915823)
(0 -0.023543845 0.55089339)
(0 -0.026515564 0.56495909)
(0 -0.025682101 0.54631421)
(0 -0.015301051 0.41862919)
(0 0.00057351165 0.1494354)
(0 -0.001085563 0.13172116)
(0 0.011624735 0.3914293)
(0 0.025194748 0.54230341)
(0 0.028555783 0.57697323)
(0 0.026048695 0.56376012)
(0 0.023259552 0.54840562)
(0 0.021125102 0.5392812)
(0 0.019240204 0.53338076)
(0 0.017446928 0.52885535)
(0 0.015720702 0.52521823)
(0 0.014067733 0.52228071)
(0 0.012484942 0.51990033)
(0 0.010967304 0.51796782)
(0 0.0095093861 0.51640171)
(0 0.0081047936 0.51514083)
(0 0.0067466472 0.5141389)
(0 0.0054276822 0.51336103)
(0 0.0041403815 0.51278124)
(0 0.0028770864 0.51238084)
(0 0.0016300581 0.51214731)
(0 0.00039152113 0.51207356)
(0 -0.00084629275 0.51215757)
(0 -0.002091171 0.51240231)
(0 -0.0033508324 0.51281584)
(0 -0.0046329554 0.51341182)
(0 -0.0059451011 0.51421026)
(0 -0.0072946467 0.5152388)
(0 -0.0086886613 0.51653449)
(0 -0.010133843 0.51814652)
(0 -0.011636164 0.5201402)
(0 -0.01320083 0.52260278)
(0 -0.0148325 0.52564922)
(0 -0.016529098 0.52942941)
(0 -0.018302589 0.53426646)
(0 -0.020237036 0.54140938)
(0 -0.02261895 0.55345651)
(0 -0.025077414 0.56562559)
(0 -0.023374874 0.54023462)
(0 -0.012787839 0.40602312)
(0 0.00075866412 0.14300023)
(0 -0.00094372518 0.12739859)
(0 0.0097207495 0.37926128)
(0 0.022898449 0.5343727)
(0 0.026978466 0.57629351)
(0 0.025115396 0.56613262)
(0 0.022527278 0.55075862)
(0 0.020500267 0.54121862)
(0 0.018742287 0.53515401)
(0 0.017065892 0.53056019)
(0 0.015437758 0.52686183)
(0 0.013865065 0.5238624)
(0 0.012346581 0.52142258)
(0 0.010879352 0.5194346)
(0 0.0094598619 0.51781788)
(0 0.0080836062 0.51651195)
(0 0.0067454972 0.5154711)
(0 0.0054399314 0.51466083)
(0 0.0041609316 0.51405545)
(0 0.0029022695 0.51363644)
(0 0.0016575508 0.51339138)
(0 0.00042028554 0.51331324)
(0 -0.00081603409 0.51339999)
(0 -0.0020579263 0.51365455)
(0 -0.0033118043 0.51408494)
(0 -0.0045839684 0.51470464)
(0 -0.0058804984 0.51553346)
(0 -0.0072071675 0.51659871)
(0 -0.0085692942 0.51793697)
(0 -0.0099716717 0.51959681)
(0 -0.011418274 0.52164275)
(0 -0.012912123 0.52416083)
(0 -0.014455598 0.5272636)
(0 -0.016044852 0.53110318)
(0 -0.017694717 0.53605536)
(0 -0.019507331 0.54350159)
(0 -0.021713236 0.55567754)
(0 -0.023683073 0.56563048)
(0 -0.021283639 0.53382487)
(0 -0.010735484 0.39440767)
(0 0.00080444299 0.13774438)
(0 -0.00077512541 0.12377177)
(0 0.0082549234 0.36821192)
(0 0.020874244 0.52639992)
(0 0.025499363 0.57501941)
(0 0.024227064 0.56812694)
(0 0.021833426 0.55296237)
(0 0.019893573 0.54304672)
(0 0.018239807 0.53681506)
(0 0.016664955 0.53216318)
(0 0.015125431 0.52841944)
(0 0.013627435 0.52537318)
(0 0.012170779 0.52288744)
(0 0.0107539 0.52085592)
(0 0.0093746162 0.51919885)
(0 0.008029842 0.51785652)
(0 0.0067159112 0.51678385)
(0 0.005428595 0.5159468)
(0 0.0041632363 0.51532004)
(0 0.0029148682 0.51488531)
(0 0.0016783091 0.51463035)
(0 0.00044824522 0.51454821)
(0 -0.00078066893 0.51463686)
(0 -0.0020137818 0.51489919)
(0 -0.0032563137 0.51534306)
(0 -0.0045133262 0.51598175)
(0 -0.0057895966 0.51683478)
(0 -0.0070895273 0.51792901)
(0 -0.0084169934 0.51930048)
(0 -0.0097752787 0.52099701)
(0 -0.011166857 0.52308229)
(0 -0.012593196 0.52564112)
(0 -0.014055155 0.52878393)
(0 -0.015548418 0.53266855)
(0 -0.017092401 0.53773044)
(0 -0.018803433 0.54545133)
(0 -0.020844272 0.5575789)
(0 -0.022359119 0.56507865)
(0 -0.019413518 0.52724693)
(0 -0.009081223 0.38374232)
(0 0.0007673536 0.13339544)
(0 -0.00060774983 0.12065046)
(0 0.0071280677 0.35817231)
(0 0.019094119 0.51849717)
(0 0.024124352 0.57325988)
(0 0.023386173 0.56977242)
(0 0.021182467 0.55502979)
(0 0.019315126 0.54478596)
(0 0.01774548 0.53838226)
(0 0.016257561 0.53367691)
(0 0.014796989 0.52989917)
(0 0.01336738 0.52681781)
(0 0.011968976 0.52429699)
(0 0.010601091 0.52223173)
(0 0.0092624051 0.520543)
(0 0.0079508576 0.51917171)
(0 0.0066638748 0.51807339)
(0 0.0053983359 0.51721453)
(0 0.0041506888 0.51657018)
(0 0.0029170522 0.51612234)
(0 0.0016933111 0.51585896)
(0 0.00047520181 0.51577318)
(0 -0.00074157748 0.51586298)
(0 -0.0019613245 0.51613119)
(0 -0.0031881983 0.5165855)
(0 -0.0044261743 0.51723898)
(0 -0.005678914 0.51811075)
(0 -0.0069496795 0.51922723)
(0 -0.0082411909 0.52062384)
(0 -0.0095555779 0.52234772)
(0 -0.010894242 0.52446174)
(0 -0.012257607 0.5270495)
(0 -0.013645639 0.53021991)
(0 -0.015054664 0.53414041)
(0 -0.016509671 0.53931021)
(0 -0.018136144 0.54727298)
(0 -0.020021794 0.55918499)
(0 -0.02112003 0.56406481)
(0 -0.017755277 0.52062141)
(0 -0.0077603463 0.37396414)
(0 0.00068580685 0.12973806)
(0 -0.0004565191 0.11789938)
(0 0.0062575997 0.34903293)
(0 0.017527945 0.51074093)
(0 0.022851554 0.57110625)
(0 0.022591376 0.57109706)
(0 0.020574589 0.5569703)
(0 0.018769983 0.54645247)
(0 0.017267437 0.53987176)
(0 0.01585316 0.53511329)
(0 0.014462281 0.53130918)
(0 0.013094591 0.5282016)
(0 0.011750312 0.52565421)
(0 0.010429245 0.52356313)
(0 0.0091305687 0.52184986)
(0 0.0078529319 0.52045587)
(0 0.0065945728 0.51933722)
(0 0.0053532424 0.51846084)
(0 0.0041262917 0.51780218)
(0 0.0029107544 0.51734355)
(0 0.0017034333 0.51707305)
(0 0.00050098081 0.51698395)
(0 -0.00069998876 0.51707425)
(0 -0.0019028515 0.51734668)
(0 -0.0031108434 0.51780878)
(0 -0.0043270101 0.51847335)
(0 -0.0055540798 0.51935916)
(0 -0.0067943897 0.52049215)
(0 -0.0080497632 0.52190718)
(0 -0.0093214822 0.52365074)
(0 -0.010610228 0.52578498)
(0 -0.011915788 0.52839247)
(0 -0.013237722 0.53158145)
(0 -0.014573906 0.53553282)
(0 -0.015955261 0.5408107)
(0 -0.017510806 0.54897863)
(0 -0.019249827 0.5605205)
(0 -0.019971274 0.56267168)
(0 -0.016291655 0.51403582)
(0 -0.0067116444 0.36499961)
(0 0.00058498044 0.12660568)
(0 -0.00032789862 0.11542428)
(0 0.0055777826 0.34068989)
(0 0.016146785 0.50318126)
(0 0.021674697 0.56863421)
(0 0.021839301 0.57212692)
(0 0.020007407 0.55879052)
(0 0.018259723 0.54805848)
(0 0.016810425 0.54129731)
(0 0.015458115 0.53648308)
(0 0.014128401 0.53265724)
(0 0.012816388 0.52952997)
(0 0.011521934 0.52696254)
(0 0.010245043 0.52485188)
(0 0.0089851339 0.52311986)
(0 0.0077413135 0.52170833)
(0 0.0065124038 0.52057376)
(0 0.0052968229 0.51968352)
(0 0.004092646 0.51901339)
(0 0.0028976615 0.51854594)
(0 0.0017094462 0.51826947)
(0 0.00052543529 0.51817734)
(0 -0.00065696929 0.51826756)
(0 -0.0018403519 0.51854278)
(0 -0.0030271639 0.5190104)
(0 -0.0042196715 0.51968293)
(0 -0.0054198399 0.52057882)
(0 -0.0066292758 0.52172355)
(0 -0.0078491286 0.52315149)
(0 -0.0090800866 0.52490859)
(0 -0.010322389 0.5270564)
(0 -0.011575499 0.52967667)
(0 -0.012838944 0.53287803)
(0 -0.014112835 0.53685851)
(0 -0.015433874 0.54224529)
(0 -0.0169289 0.55057822)
(0 -0.018528483 0.56160916)
(0 -0.018912145 0.56096973)
(0 -0.015001825 0.5075516)
(0 -0.005880518 0.35677207)
(0 0.00048061768 0.12387162)
(0 -0.00022322038 0.11316074)
(0 0.0050381342 0.3330482)
(0 0.014924544 0.49584904)
(0 0.020585537 0.5659062)
(0 0.021125813 0.57288591)
(0 0.019477194 0.56049493)
(0 0.017783678 0.54961277)
(0 0.016376784 0.54267029)
(0 0.015076459 0.53779581)
(0 0.013800276 0.53395049)
(0 0.012538149 0.53080812)
(0 0.011289305 0.52822558)
(0 0.010053746 0.52610016)
(0 0.0088309539 0.52435397)
(0 0.0076203072 0.52292906)
(0 0.0064210278 0.52178223)
(0 0.0052320321 0.52088117)
(0 0.0040519626 0.52020194)
(0 0.0028792185 0.51972737)
(0 0.001712017 0.51944591)
(0 0.00054844816 0.519351)
(0 -0.00061342061 0.51944066)
(0 -0.0017755076 0.51971749)
(0 -0.0029396116 0.5201887)
(0 -0.0041073585 0.5208666)
(0 -0.0052801042 0.52176929)
(0 -0.0064588934 0.5229219)
(0 -0.0076443887 0.52435835)
(0 -0.0088368876 0.52612419)
(0 -0.0100364 0.52828053)
(0 -0.011242292 0.53090855)
(0 -0.012454337 0.53411846)
(0 -0.013675354 0.53812863)
(0 -0.014947277 0.54362474)
(0 -0.016389343 0.55207964)
(0 -0.017855438 0.56247299)
(0 -0.017938133 0.55901796)
(0 -0.013864288 0.50121025)
(0 -0.0052202981 0.34920639)
(0 0.00038192398 0.12144102)
(0 -0.00014095583 0.11106535)
(0 0.0046009989 0.32602322)
(0 0.013838545 0.48876154)
(0 0.019575408 0.56297372)
(0 0.020446789 0.57339581)
(0 0.018979743 0.5620864)
(0 0.017339862 0.55112131)
(0 0.01596722 0.54399987)
(0 0.014710521 0.53905963)
(0 0.013481177 0.53519528)
(0 0.012263711 0.53204091)
(0 0.011056503 0.52944684)
(0 0.0098594102 0.52731034)
(0 0.0086718631 0.52555354)
(0 0.0074933788 0.52411858)
(0 0.0063234369 0.52296244)
(0 0.0051613144 0.52205304)
(0 0.0040060884 0.52136669)
(0 0.0028566435 0.52088639)
(0 0.0017117174 0.52060076)
(0 0.00056993192 0.5205033)
(0 -0.00057008624 0.52059203)
(0 -0.0017097055 0.52086948)
(0 -0.0028502014 0.52134273)
(0 -0.0039926783 0.52202387)
(0 -0.0051380183 0.52293074)
(0 -0.0062868473 0.52408815)
(0 -0.0074394918 0.5255297)
(0 -0.0085960165 0.52730063)
(0 -0.009756353 0.5294618)
(0 -0.010919938 0.53209408)
(0 -0.012086991 0.53531057)
(0 -0.01326331 0.53935259)
(0 -0.014495221 0.54495735)
(0 -0.015889494 0.55348898)
(0 -0.017227022 0.56313195)
(0 -0.017042663 0.55686525)
(0 -0.012858605 0.49503846)
(0 -0.0046924396 0.34223183)
(0 0.00029372886 0.1192441)
(0 -7.8195455e-05 0.10910908)
(0 0.0042389617 0.31954083)
(0 0.012869507 0.48192662)
(0 0.018636095 0.55987944)
(0 0.01979853 0.57367653)
(0 0.018510891 0.5635668)
(0 0.016925633 0.5525878)
(0 0.015581394 0.54529322)
(0 0.014361432 0.54028148)
(0 0.013173142 0.53639719)
(0 0.011995714 0.53323273)
(0 0.010826494 0.53062971)
(0 0.0096650945 0.52848483)
(0 0.0085108326 0.52672014)
(0 0.007363269 0.52527771)
(0 0.0062220347 0.5241146)
(0 0.0050866584 0.52319887)
(0 0.0039565423 0.522507)
(0 0.0028309475 0.52202216)
(0 0.0017090258 0.52173304)
(0 0.00058983756 0.52163322)
(0 -0.0005275525 0.52172073)
(0 -0.0016440679 0.52199802)
(0 -0.0027605503 0.52247206)
(0 -0.0038777039 0.52315476)
(0 -0.0049960504 0.52406374)
(0 -0.0061159137 0.52522357)
(0 -0.0072374038 0.52666763)
(0 -0.0083604691 0.52844098)
(0 -0.0094850683 0.53060435)
(0 -0.01061082 0.53323866)
(0 -0.011738538 0.53646121)
(0 -0.012877096 0.54053818)
(0 -0.014076167 0.54624926)
(0 -0.015425896 0.55481083)
(0 -0.016638997 0.56360397)
(0 -0.016218307 0.55455188)
(0 -0.01196629 0.48905211)
(0 -0.004266008 0.33578368)
(0 0.00021801553 0.11723023)
(0 -3.1572839e-05 0.10727231)
(0 0.0039324554 0.31353686)
(0 0.012001241 0.47534575)
(0 0.017760256 0.55665897)
(0 0.019177918 0.57374642)
(0 0.018066815 0.56493742)
(0 0.016538121 0.55401423)
(0 0.015218336 0.54655584)
(0 0.014029512 0.54146711)
(0 0.012877323 0.53756105)
(0 0.011735892 0.53438749)
(0 0.010601369 0.53177727)
(0 0.0094730531 0.52962598)
(0 0.0083501177 0.52785544)
(0 0.0072321047 0.52640753)
(0 0.0061187188 0.52523927)
(0 0.005009656 0.5243188)
(0 0.0039045546 0.52362271)
(0 0.0028029621 0.52313424)
(0 0.0017043524 0.52284221)
(0 0.00060813422 0.52274021)
(0 -0.00048628151 0.52282628)
(0 -0.0015794658 0.52310281)
(0 -0.0026719188 0.52357666)
(0 -0.0037640394 0.52425962)
(0 -0.0048560831 0.52516914)
(0 -0.0059481662 0.52632961)
(0 -0.0070402736 0.52777428)
(0 -0.0081323216 0.52954817)
(0 -0.0092243619 0.53171198)
(0 -0.010316269 0.53434708)
(0 -0.01140956 0.53757621)
(0 -0.012516131 0.54169164)
(0 -0.013687821 0.54750482)
(0 -0.014994778 0.55604861)
(0 -0.016087064 0.56390503)
(0 -0.015457589 0.55211105)
(0 -0.011171159 0.48325935)
(0 -0.0039167683 0.32980381)
(0 0.0001549888 0.11536306)
(0 2.1940903e-06 0.10554142)
(0 0.0036677202 0.30795611)
(0 0.011220232 0.46901613)
(0 0.016941555 0.55334215)
(0 0.018582438 0.57362246)
(0 0.017644172 0.56619935)
(0 0.016174495 0.55540135)
(0 0.014876735 0.54779181)
(0 0.013714545 0.5426213)
(0 0.012594242 0.538691)
(0 0.011485305 0.53550863)
(0 0.010382544 0.53289236)
(0 0.0092848999 0.53073604)
(0 0.0081913921 0.52896111)
(0 0.0071015044 0.52750921)
(0 0.0060149609 0.52633721)
(0 0.0049315608 0.52541324)
(0 0.0038511077 0.52471393)
(0 0.0027733609 0.52422262)
(0 0.0016980397 0.52392814)
(0 0.00062482087 0.52382412)
(0 -0.00044661303 0.5239086)
(0 -0.0015165599 0.52418391)
(0 -0.0025852614 0.52465685)
(0 -0.0036528875 0.5253391)
(0 -0.0047195047 0.52624799)
(0 -0.0057850956 0.52740781)
(0 -0.0068495874 0.52885177)
(0 -0.0079129225 0.53062491)
(0 -0.008975283 0.5327881)
(0 -0.010036846 0.53542348)
(0 -0.011099906 0.53866048)
(0 -0.012179217 0.54281786)
(0 -0.013327527 0.54872693)
(0 -0.014592396 0.55720491)
(0 -0.015567178 0.56404946)
(0 -0.014753472 0.54957011)
(0 -0.010459344 0.4776629)
(0 -0.0036261157 0.32424078)
(0 0.00010381845 0.1136167)
(0 2.6024806e-05 0.10390647)
(0 0.0034351641 0.30275126)
(0 0.010515196 0.46293217)
(0 0.016174625 0.5499542)
(0 0.018010117 0.57332053)
(0 0.017240136 0.56735374)
(0 0.01583211 0.55674903)
(0 0.014555124 0.5490041)
(0 0.013415988 0.54374798)
(0 0.012323992 0.53979055)
(0 0.011244519 0.53659916)
(0 0.010170924 0.53397751)
(0 0.0091017483 0.53181708)
(0 0.0080358633 0.53003883)
(0 0.0069726717 0.52858401)
(0 0.00591188 0.52740932)
(0 0.004853343 0.5264828)
(0 0.0037969741 0.52578108)
(0 0.0027426841 0.52528751)
(0 0.0016903738 0.52499096)
(0 0.00063992201 0.52488508)
(0 -0.00040878209 0.52496786)
(0 -0.0014558302 0.52524164)
(0 -0.0025012731 0.52571315)
(0 -0.0035451151 0.52639399)
(0 -0.0045872956 0.52730142)
(0 -0.0056277195 0.5284597)
(0 -0.006666305 0.52990206)
(0 -0.0077030577 0.53167369)
(0 -0.0087383079 0.5338357)
(0 -0.0097725602 0.53647141)
(0 -0.010808942 0.53971808)
(0 -0.011864808 0.54392061)
(0 -0.012992529 0.54991732)
(0 -0.014215234 0.55828169)
(0 -0.015075715 0.56405015)
(0 -0.014099615 0.54695176)
(0 -0.0098191286 0.47226178)
(0 -0.0033800073 0.31904941)
(0 6.3145515e-05 0.11197268)
(0 4.2368244e-05 0.10235971)
(0 0.0032281077 0.29788175)
(0 0.0098766782 0.45708652)
(0 0.015454946 0.54651647)
(0 0.017459428 0.57285547)
(0 0.016852381 0.56840194)
(0 0.015508582 0.55805663)
(0 0.014252008 0.55019478)
(0 0.013133106 0.54485033)
(0 0.012066382 0.54086274)
(0 0.011013754 0.53766171)