/*--------------------------------*- C++ -*----------------------------------*\
  =========                 |
  \\      /  F ield         | OpenFOAM: The Open Source CFD Toolbox
   \\    /   O peration     | Website:  https://openfoam.org
    \\  /    A nd           | Version:  10
     \\/     M anipulation  |
\*---------------------------------------------------------------------------*/
FoamFile
{
    format      ascii;
    class       volVectorField;
    location    "0.28";
    object      U_0;
}
// * * * * * * * * * * * * * * * * * * * * * * * * * * * * * * * * * * * * * //

dimensions      [0 1 -1 0 0 0 0];

internalField   nonuniform List<vector> 
4000
(
(0 0.01863746 0.47773156)
(0 0.023510007 0.50886061)
(0 0.0081668594 0.50052522)
(0 0.0056146181 0.50033634)
(0 0.0042546307 0.50025746)
(0 0.0032549442 0.50016898)
(0 0.0025560871 0.50011969)
(0 0.0020545749 0.50009013)
(0 0.0016765685 0.50006981)
(0 0.0013822247 0.50005539)
(0 0.001147171 0.50004499)
(0 0.00095506876 0.50003733)
(0 0.00079466388 0.5000316)
(0 0.00065798068 0.50002727)
(0 0.00053919097 0.50002399)
(0 0.00043391411 0.50002151)
(0 0.00033876291 0.50001967)
(0 0.00025103547 0.50001834)
(0 0.00016849923 0.50001744)
(0 8.9232442e-05 0.50001694)
(0 1.1501694e-05 0.50001679)
(0 -6.6344832e-05 0.50001699)
(0 -0.00014596929 0.50001755)
(0 -0.00022913613 0.5000185)
(0 -0.00031782271 0.50001991)
(0 -0.00041435003 0.50002185)
(0 -0.00052155449 0.50002446)
(0 -0.00064302712 0.50002793)
(0 -0.00078346154 0.50003252)
(0 -0.00094918366 0.50003863)
(0 -0.0011490029 0.50004688)
(0 -0.0013955775 0.50005824)
(0 -0.0017076535 0.50007414)
(0 -0.0021155797 0.50009709)
(0 -0.0026752698 0.50013481)
(0 -0.0034688323 0.50020237)
(0 -0.0045610435 0.50027142)
(0 -0.0065852233 0.50043364)
(0 -0.017659655 0.50675408)
(0 -0.013590224 0.47975558)
(0 0.037432698 0.44796925)
(0 0.050955772 0.53232616)
(0 0.021969346 0.5080429)
(0 0.016135665 0.50357319)
(0 0.012416102 0.50242317)
(0 0.0095159672 0.501623)
(0 0.0075206249 0.50115662)
(0 0.0060698854 0.50086594)
(0 0.004964551 0.50066802)
(0 0.0041000896 0.50052903)
(0 0.003407551 0.50042906)
(0 0.0028399879 0.50035556)
(0 0.0023650269 0.50030067)
(0 0.0019595845 0.50025927)
(0 0.0016067007 0.50022793)
(0 0.0012935809 0.50020427)
(0 0.0010103004 0.50018666)
(0 0.00074892189 0.50017399)
(0 0.00050287165 0.50016548)
(0 0.00026648076 0.50016065)
(0 3.4629078e-05 0.50015922)
(0 -0.00019756211 0.50016112)
(0 -0.00043500157 0.50016647)
(0 -0.00068289905 0.50017557)
(0 -0.00094708436 0.50018898)
(0 -0.0012343862 0.50020753)
(0 -0.001553128 0.50023247)
(0 -0.0019138156 0.50026558)
(0 -0.0023301293 0.5003095)
(0 -0.0028204084 0.5003681)
(0 -0.0034100273 0.50044735)
(0 -0.0041353614 0.5005567)
(0 -0.0050494886 0.50071125)
(0 -0.0062322732 0.50093659)
(0 -0.0078325984 0.50129435)
(0 -0.01012625 0.50191049)
(0 -0.013107327 0.50282505)
(0 -0.017426707 0.50608114)
(0 -0.038759444 0.52526813)
(0 -0.027894863 0.4502162)
(0 0.039888303 0.40982051)
(0 0.061428202 0.54930816)
(0 0.031983838 0.52188198)
(0 0.024355583 0.51008057)
(0 0.019193712 0.50658859)
(0 0.014977239 0.50452811)
(0 0.012006795 0.50327144)
(0 0.0097719748 0.50245844)
(0 0.0080365365 0.50190113)
(0 0.006664835 0.50150876)
(0 0.0055566499 0.50122555)
(0 0.0046424476 0.50101681)
(0 0.0038734906 0.50086066)
(0 0.0032143836 0.50074275)
(0 0.0026387931 0.50065337)
(0 0.0021266665 0.50058586)
(0 0.0016623276 0.50053559)
(0 0.0012331574 0.50049939)
(0 0.00082864945 0.50047507)
(0 0.00043970569 0.50046124)
(0 5.808558e-05 0.50045715)
(0 -0.00032407152 0.50046258)
(0 -0.00071467332 0.50047786)
(0 -0.0011220983 0.50050387)
(0 -0.0015556907 0.50054217)
(0 -0.0020263443 0.50059513)
(0 -0.0025472567 0.50066624)
(0 -0.0031349597 0.5007606)
(0 -0.0038107826 0.50088558)
(0 -0.0046029641 0.50105212)
(0 -0.0055498578 0.50127674)
(0 -0.0067054433 0.50158559)
(0 -0.0081469201 0.50202076)
(0 -0.0099783754 0.50265067)
(0 -0.012372624 0.503615)
(0 -0.015717621 0.50519908)
(0 -0.019873956 0.50785378)
(0 -0.025187611 0.51641216)
(0 -0.047418056 0.53912716)
(0 -0.030854069 0.41487939)
(0 0.034791625 0.36172997)
(0 0.063839032 0.55456332)
(0 0.039380555 0.5374714)
(0 0.030083522 0.51849265)
(0 0.024112735 0.51197735)
(0 0.019279707 0.50849952)
(0 0.015736255 0.50626434)
(0 0.012954221 0.50475555)
(0 0.010743642 0.50370454)
(0 0.0089678289 0.50295626)
(0 0.0075137501 0.50241123)
(0 0.0063017416 0.50200696)
(0 0.0052739994 0.50170317)
(0 0.0043872672 0.50147295)
(0 0.0036087294 0.50129795)
(0 0.0029130035 0.50116547)
(0 0.0022799844 0.50106668)
(0 0.0016933128 0.50099542)
(0 0.0011392492 0.5009475)
(0 0.0006058154 0.50092023)
(0 8.2111875e-05 0.50091215)
(0 -0.00044228082 0.50092285)
(0 -0.00097784245 0.50095294)
(0 -0.0015356418 0.50100415)
(0 -0.0021279567 0.50107945)
(0 -0.0027689916 0.50118344)
(0 -0.003475784 0.50132283)
(0 -0.00426941 0.50150729)
(0 -0.005176648 0.50175083)
(0 -0.0062322756 0.50207392)
(0 -0.0074821596 0.50250703)
(0 -0.0089885302 0.50309717)
(0 -0.010838756 0.50391905)
(0 -0.013139394 0.50508904)
(0 -0.016026102 0.50680663)
(0 -0.019901445 0.50946719)
(0 -0.024733289 0.51427455)
(0 -0.031115181 0.52824681)
(0 -0.050321115 0.5440714)
(0 -0.028438897 0.37237927)
(0 0.027424314 0.31484309)
(0 0.06231504 0.55024059)
(0 0.044614783 0.5514677)
(0 0.033982241 0.5274882)
(0 0.027464247 0.51772251)
(0 0.022455317 0.51291993)
(0 0.018636895 0.50973156)
(0 0.015528175 0.50749279)
(0 0.013006176 0.50590011)
(0 0.010942074 0.5047471)
(0 0.0092244883 0.50389635)
(0 0.0077745657 0.50325941)
(0 0.0065323212 0.50277735)
(0 0.0054513305 0.50240998)
(0 0.0044955461 0.50212948)
(0 0.0036365032 0.50191641)
(0 0.002851259 0.50175708)
(0 0.002120875 0.50164192)
(0 0.0014292584 0.50156436)
(0 0.00076225034 0.50152017)
(0 0.0001068875 0.50150705)
(0 -0.00054925946 0.50152433)
(0 -0.0012186882 0.50157301)
(0 -0.0019145436 0.50165577)
(0 -0.0026513024 0.50177731)
(0 -0.0034455429 0.50194477)
(0 -0.0043168906 0.50216856)
(0 -0.005289229 0.50246355)
(0 -0.0063923077 0.50285101)
(0 -0.0076639007 0.50336158)
(0 -0.0091522702 0.5040399)
(0 -0.010919852 0.50495251)
(0 -0.01305348 0.50620221)
(0 -0.015656949 0.50794391)
(0 -0.01881811 0.51040395)
(0 -0.022898468 0.51405437)
(0 -0.028179496 0.52114502)
(0 -0.03570962 0.5393262)
(0 -0.050478513 0.5415542)
(0 -0.024086892 0.33055602)
(0 0.01983797 0.27519752)
(0 0.057990234 0.53974643)
(0 0.04736422 0.56256482)
(0 0.036477964 0.53660467)
(0 0.029636431 0.52350723)
(0 0.024676396 0.51740344)
(0 0.020774462 0.5133632)
(0 0.017509934 0.51044477)
(0 0.014814312 0.50832448)
(0 0.012566667 0.50676213)
(0 0.010665475 0.50559314)
(0 0.0090387425 0.5047084)
(0 0.0076288548 0.50403295)
(0 0.0063899512 0.5035146)
(0 0.0052855739 0.50311661)
(0 0.0042862552 0.50281296)
(0 0.003367768 0.5025851)
(0 0.0025097773 0.50241996)
(0 0.0016947609 0.50230851)
(0 0.0009071335 0.50224491)
(0 0.00013252002 0.50222596)
(0 -0.00064291098 0.50225075)
(0 -0.0014330624 0.50232063)
(0 -0.0022524868 0.50243934)
(0 -0.0031170776 0.50261333)
(0 -0.0040448199 0.50285237)
(0 -0.0050566872 0.50317062)
(0 -0.006177743 0.50358806)
(0 -0.0074385353 0.50413287)
(0 -0.0088769906 0.50484501)
(0 -0.010540373 0.50578146)
(0 -0.012486975 0.50702453)
(0 -0.014797008 0.50869736)
(0 -0.017572254 0.5109816)
(0 -0.02086669 0.51411959)
(0 -0.024976595 0.51872967)
(0 -0.030511393 0.52822945)
(0 -0.038632929 0.54872374)
(0 -0.048510969 0.53398279)
(0 -0.019067657 0.29393617)
(0 0.013083251 0.24255457)
(0 0.051799101 0.5252004)
(0 0.047709949 0.57024857)
(0 0.037757543 0.5455251)
(0 0.030850852 0.52928878)
(0 0.026073938 0.52180186)
(0 0.022238342 0.51699817)
(0 0.018953992 0.51347376)
(0 0.016193701 0.51086529)
(0 0.013849665 0.50891285)
(0 0.011835389 0.5074331)
(0 0.010088289 0.50630103)
(0 0.0085557451 0.50542889)
(0 0.0071950087 0.50475454)
(0 0.0059712828 0.5042336)
(0 0.0048557516 0.50383415)
(0 0.0038242297 0.50353321)
(0 0.0028560479 0.50331441)
(0 0.0019331212 0.5031664)
(0 0.0010391689 0.50308178)
(0 0.00015905044 0.50305646)
(0 -0.00072185896 0.5030893)
(0 -0.0016182551 0.503182)
(0 -0.0025454403 0.50333931)
(0 -0.0035199772 0.50356936)
(0 -0.0045603678 0.50388444)
(0 -0.005687848 0.50430213)
(0 -0.0069273294 0.50484708)
(0 -0.0083085151 0.50555354)
(0 -0.0098674739 0.5064693)
(0 -0.011648399 0.50766151)
(0 -0.013703534 0.50922502)
(0 -0.016102386 0.51129781)
(0 -0.018940247 0.51407923)
(0 -0.022248482 0.5178381)
(0 -0.026267923 0.52346724)
(0 -0.031851628 0.53537478)
(0 -0.039762771 0.55589626)
(0 -0.044896501 0.52282095)
(0 -0.014091376 0.26264206)
(0 0.0077701892 0.21554067)
(0 0.044826148 0.50800971)
(0 0.04625613 0.57438091)
(0 0.038035969 0.55375151)
(0 0.031288498 0.53496075)
(0 0.026768908 0.52603057)
(0 0.023117196 0.52053877)
(0 0.019921194 0.51648864)
(0 0.017182353 0.51344209)
(0 0.014813459 0.51113114)
(0 0.012746083 0.50936007)
(0 0.010928174 0.50799159)
(0 0.0093138336 0.50692809)
(0 0.007865095 0.50609966)
(0 0.0065502174 0.5054557)
(0 0.0053422473 0.50495935)
(0 0.0042180774 0.50458385)
(0 0.0031575806 0.50430993)
(0 0.0021428575 0.50412414)
(0 0.0011575877 0.5040177)
(0 0.00018645988 0.5039857)
(0 -0.00078537735 0.50402678)
(0 -0.0017728437 0.50414299)
(0 -0.0027913901 0.50433996)
(0 -0.0038575839 0.50462735)
(0 -0.0049896851 0.50501967)
(0 -0.0062083087 0.50553753)
(0 -0.0075371898 0.50620953)
(0 -0.0090040087 0.50707499)
(0 -0.010641558 0.50818809)
(0 -0.012489417 0.50962405)
(0 -0.014592714 0.51148794)
(0 -0.017007649 0.51392863)
(0 -0.019815878 0.51715485)
(0 -0.023033362 0.52147967)
(0 -0.026882656 0.52818207)
(0 -0.032354582 0.54221999)
(0 -0.039407128 0.56050134)
(0 -0.040330952 0.50908052)
(0 -0.0097087539 0.23585333)
(0 0.0040050276 0.19355586)
(0 0.037899897 0.48948667)
(0 0.043687833 0.57524012)
(0 0.037564825 0.5608454)
(0 0.03115508 0.5403615)
(0 0.026914976 0.53001179)
(0 0.023514826 0.52390231)
(0 0.020480904 0.5194132)
(0 0.01782719 0.51598851)
(0 0.015489726 0.51335971)
(0 0.013418185 0.51132498)
(0 0.011571217 0.50973845)
(0 0.0099106652 0.50849547)
(0 0.0084042956 0.50752037)
(0 0.0070242827 0.50675779)
(0 0.0057463586 0.50616701)
(0 0.0045492447 0.50571817)
(0 0.0034140261 0.50538964)
(0 0.0023235922 0.50516622)
(0 0.0012621317 0.50503792)
(0 0.00021467447 0.50499915)
(0 -0.00083336261 0.50504836)
(0 -0.0018966271 0.50518787)
(0 -0.0029902026 0.5054241)
(0 -0.0041301068 0.50576801)
(0 -0.0053337493 0.50623595)
(0 -0.0066204458 0.50685105)
(0 -0.0080120023 0.50764509)
(0 -0.0095332707 0.50866144)
(0 -0.011212846 0.50995916)
(0 -0.013084592 0.51161958)
(0 -0.015186022 0.51375536)
(0 -0.017559774 0.51652225)
(0 -0.02026999 0.52013131)
(0 -0.023324531 0.52496275)
(0 -0.026965436 0.53273945)
(0 -0.032207041 0.5483904)
(0 -0.037999063 0.56254247)
(0 -0.035417599 0.49378826)
(0 -0.0062011205 0.21324705)
(0 0.0015511706 0.17613285)
(0 0.031500037 0.47076105)
(0 0.040533248 0.57338571)
(0 0.036559992 0.56659886)
(0 0.030638299 0.54537892)
(0 0.026672533 0.53370508)
(0 0.023543858 0.52703288)
(0 0.020711033 0.52218916)
(0 0.018183396 0.5184521)
(0 0.01591748 0.51555202)
(0 0.013878861 0.51328676)
(0 0.012036106 0.51150569)
(0 0.010358919 0.51009977)
(0 0.008821045 0.50898951)
(0 0.0073989571 0.50811617)
(0 0.0060715434 0.50743623)
(0 0.0048198329 0.50691751)
(0 0.0036265893 0.50653656)
(0 0.0024759381 0.50627679)
(0 0.0013530046 0.50612725)
(0 0.00024357147 0.50608181)
(0 -0.00086627206 0.50613874)
(0 -0.0019904959 0.50630061)
(0 -0.003143402 0.50657447)
(0 -0.0043400274 0.50697229)
(0 -0.0055964784 0.50751192)
(0 -0.0069302975 0.50821839)
(0 -0.0083608695 0.50912592)
(0 -0.0099097602 0.51028082)
(0 -0.011600974 0.51174564)
(0 -0.013462233 0.51360574)
(0 -0.015523599 0.51597858)
(0 -0.0178157 0.51902273)
(0 -0.020385471 0.52294917)
(0 -0.023240152 0.52823486)
(0 -0.026660247 0.53703984)
(0 -0.031570277 0.5536587)
(0 -0.035909528 0.5623063)
(0 -0.030556008 0.47788543)
(0 -0.0035914794 0.19460355)
(0 7.6788067e-05 0.1625242)
(0 0.025870853 0.4525995)
(0 0.037160614 0.56943317)
(0 0.035192417 0.57098933)
(0 0.02987834 0.54996351)
(0 0.026174617 0.53711448)
(0 0.023306671 0.5299131)
(0 0.020688094 0.52478507)
(0 0.018308362 0.52079916)
(0 0.016139099 0.51767515)
(0 0.014159011 0.51521447)
(0 0.012345244 0.51326496)
(0 0.010674724 0.51171537)
(0 0.0091268376 0.51048401)
(0 0.0076823335 0.5095101)
(0 0.0063234078 0.50874827)
(0 0.0050336267 0.50816477)
(0 0.0037977063 0.50773484)
(0 0.0026013037 0.50744088)
(0 0.001430784 0.50727124)
(0 0.00027298741 0.50721936)
(0 -0.00088501892 0.5072834)
(0 -0.0020562203 0.5074661)
(0 -0.0032538309 0.50777498)
(0 -0.0044916013 0.5082228)
(0 -0.0057840367 0.50882845)
(0 -0.0071466287 0.50961835)
(0 -0.0085961011 0.51062837)
(0 -0.010150592 0.51190675)
(0 -0.011829585 0.51351823)
(0 -0.013654867 0.51555045)
(0 -0.015649652 0.51812318)
(0 -0.017834574 0.52139461)
(0 -0.020242003 0.52557916)
(0 -0.022885527 0.53128185)
(0 -0.026083213 0.54103072)
(0 -0.030574871 0.55793397)
(0 -0.033431816 0.56018802)
(0 -0.02599798 0.46206098)
(0 -0.0017655386 0.17946307)
(0 -0.00071792015 0.15190651)
(0 0.021108523 0.43543384)
(0 0.033820279 0.56393145)
(0 0.033605155 0.57408963)
(0 0.028975885 0.5540946)
(0 0.025520795 0.54026423)
(0 0.022886906 0.53255346)
(0 0.020479049 0.52719296)
(0 0.018255105 0.52301365)
(0 0.016195673 0.51970954)
(0 0.014290024 0.51708733)
(0 0.012522401 0.5149956)
(0 0.010875908 0.51332246)
(0 0.0093349135 0.51198528)
(0 0.0078841365 0.51092225)
(0 0.0065089803 0.51008701)
(0 0.0051955721 0.50944486)
(0 0.0039306879 0.50897023)
(0 0.0027016738 0.50864485)
(0 0.0014963206 0.50845659)
(0 0.00030272727 0.50839862)
(0 -0.00089085311 0.508469)
(0 -0.0020962121 0.5086706)
(0 -0.0033252748 0.50901124)
(0 -0.0045903185 0.50950422)
(0 -0.0059040902 0.51016913)
(0 -0.0072799255 0.51103323)
(0 -0.0087318584 0.51213339)
(0 -0.010274701 0.51351893)
(0 -0.011923766 0.51525569)
(0 -0.013695502 0.51743232)
(0 -0.015607062 0.52016898)
(0 -0.017670912 0.52362156)
(0 -0.019908515 0.52801576)
(0 -0.022346065 0.53410987)
(0 -0.025325282 0.54468107)
(0 -0.029335987 0.56120679)
(0 -0.03079748 0.55658279)
(0 -0.021897101 0.4467532)
(0 -0.00056496174 0.16723842)
(0 -0.0010700462 0.14358244)
(0 0.017203909 0.4194782)
(0 0.030667851 0.55733981)
(0 0.031916129 0.57602094)
(0 0.028005011 0.55776455)
(0 0.024784613 0.54318019)
(0 0.022351023 0.53497669)
(0 0.020139543 0.52941874)
(0 0.018069405 0.52509155)
(0 0.016124235 0.52164578)
(0 0.014301413 0.51889283)
(0 0.012590789 0.51668358)
(0 0.010980502 0.51490646)
(0 0.0094591155 0.51347877)
(0 0.0080148533 0.51233847)
(0 0.0066360607 0.51143882)
(0 0.0053113024 0.5107447)
(0 0.0040293914 0.51023012)
(0 0.0027794051 0.50987645)
(0 0.0015506441 0.50967129)
(0 0.00033257375 0.50960762)
(0 -0.00088524805 0.50968347)
(0 -0.0021132998 0.50990176)
(0 -0.0033621109 0.51027052)
(0 -0.0046424029 0.51080332)
(0 -0.0059651238 0.51152014)
(0 -0.0073414807 0.51244868)
(0 -0.008782943 0.51362624)
(0 -0.01030125 0.51510253)
(0 -0.011908041 0.51694372)
(0 -0.01361519 0.51923855)
(0 -0.015434696 0.52210622)
(0 -0.017372544 0.52569964)
(0 -0.019443327 0.53026598)
(0 -0.02169073 0.53673062)
(0 -0.02445969 0.5479708)
(0 -0.027955327 0.563521)
(0 -0.0281771 0.55185232)
(0 -0.018327547 0.43222675)
(0 0.00016868309 0.15738358)
(0 -0.0011531511 0.13700058)
(0 0.014079524 0.40481293)
(0 0.027783386 0.55003257)
(0 0.03021339 0.57693071)
(0 0.027018139 0.56097982)
(0 0.02401907 0.54588635)
(0 0.021750909 0.53720977)
(0 0.019714776 0.53147552)
(0 0.017789603 0.52703611)
(0 0.015956895 0.52348129)
(0 0.014219656 0.52062458)
(0 0.012571911 0.51832006)
(0 0.011005721 0.51645712)
(0 0.0095130356 0.51495353)
(0 0.0080850474 0.51374752)
(0 0.0067126872 0.51279243)
(0 0.0053867392 0.51205314)
(0 0.0040979387 0.51150353)
(0 0.0028370488 0.51112486)
(0 0.0015948811 0.51090461)
(0 0.00036229671 0.51083568)
(0 -0.00086979975 0.51091607)
(0 -0.0021105315 0.51114875)
(0 -0.0033690048 0.5115418)
(0 -0.0046543871 0.5121089)
(0 -0.0059758763 0.51287017)
(0 -0.007342673 0.51385338)
(0 -0.0087639052 0.51509586)
(0 -0.010248591 0.51664724)
(0 -0.011805249 0.51857343)
(0 -0.013442013 0.52096263)
(0 -0.015166715 0.52393217)
(0 -0.016980514 0.52763255)
(0 -0.018895035 0.5323435)
(0 -0.020974097 0.53915826)
(0 -0.02354365 0.55089341)
(0 -0.026515371 0.56495913)
(0 -0.025681939 0.54631441)
(0 -0.015300967 0.41862962)
(0 0.00057352693 0.14943574)
(0 -0.0010855647 0.13172118)
(0 0.011624723 0.39142933)
(0 0.025194725 0.54230341)
(0 0.028555757 0.57697321)
(0 0.026048674 0.56376009)
(0 0.023259536 0.54840558)
(0 0.021125093 0.53928117)
(0 0.019240202 0.53338072)
(0 0.017446933 0.5288553)
(0 0.015720716 0.52521817)
(0 0.014067756 0.52228065)
(0 0.012484975 0.51990026)
(0 0.010967349 0.51796775)
(0 0.0095094417 0.51640164)
(0 0.008104861 0.51514076)
(0 0.0067467267 0.51413883)
(0 0.005427774 0.51336096)
(0 0.0041404858 0.51278117)
(0 0.0028772031 0.51238077)
(0 0.0016301871 0.51214724)
(0 0.00039166223 0.5120735)
(0 -0.00084613995 0.51215751)
(0 -0.002091007 0.51240225)
(0 -0.0033506577 0.51281579)
(0 -0.0046327709 0.51341177)
(0 -0.0059449076 0.51421021)
(0 -0.0072944451 0.51523876)
(0 -0.0086884528 0.51653446)
(0 -0.010133629 0.5181465)
(0 -0.011635945 0.52014019)
(0 -0.013200608 0.52260278)
(0 -0.014832276 0.52564923)
(0 -0.016528874 0.52942943)
(0 -0.018302367 0.53426649)
(0 -0.020236816 0.5414094)
(0 -0.022618727 0.55345653)
(0 -0.025077194 0.56562565)
(0 -0.023374694 0.54023488)
(0 -0.012787747 0.40602363)
(0 0.00075868017 0.14300061)
(0 -0.00094372698 0.12739862)
(0 0.009720734 0.37926133)
(0 0.022898421 0.53437272)
(0 0.026978433 0.57629349)
(0 0.025115367 0.56613258)
(0 0.022527256 0.55075858)
(0 0.020500251 0.54121857)
(0 0.01874228 0.53515396)
(0 0.017065893 0.53056014)
(0 0.015437769 0.52686177)
(0 0.013865087 0.52386233)
(0 0.012346614 0.5214225)
(0 0.010879397 0.51943453)
(0 0.0094599202 0.5178178)
(0 0.0080836778 0.51651186)
(0 0.0067455826 0.51547102)
(0 0.0054400308 0.51466075)
(0 0.0041610452 0.51405537)
(0 0.0029023972 0.51363636)
(0 0.0016576926 0.5133913)
(0 0.00042044108 0.51331316)
(0 -0.00081586518 0.51339991)
(0 -0.0020577446 0.51365448)
(0 -0.0033116103 0.51408487)
(0 -0.004583763 0.51470458)
(0 -0.0058802826 0.51553341)
(0 -0.0072069423 0.51659866)
(0 -0.0085690608 0.51793694)
(0 -0.0099714314 0.51959678)
(0 -0.011418028 0.52164273)
(0 -0.012911873 0.52416082)
(0 -0.014455346 0.52726361)
(0 -0.0160446 0.5311032)
(0 -0.017694465 0.53605539)
(0 -0.01950708 0.54350161)
(0 -0.021712982 0.55567756)
(0 -0.023682825 0.56563056)
(0 -0.02128344 0.5338252)
(0 -0.010735383 0.39440827)
(0 0.00080445975 0.13774482)
(0 -0.00077512732 0.12377181)
(0 0.0082549047 0.36821198)
(0 0.020874209 0.52639994)
(0 0.025499321 0.57501939)
(0 0.024227026 0.5681269)
(0 0.021833396 0.55296232)
(0 0.019893551 0.54304666)
(0 0.018239793 0.536815)
(0 0.016664952 0.53216311)
(0 0.015125438 0.52841937)
(0 0.013627455 0.5253731)
(0 0.012170811 0.52288735)
(0 0.010753946 0.52085583)
(0 0.0093746768 0.51919876)
(0 0.0080299178 0.51785643)
(0 0.0067160025 0.51678375)
(0 0.0054287021 0.5159467)
(0 0.0041633595 0.51531994)
(0 0.0029150075 0.51488522)
(0 0.0016784643 0.51463026)
(0 0.00044841615 0.51454812)
(0 -0.00078048274 0.51463678)
(0 -0.0020135809 0.51489911)
(0 -0.0032560989 0.51534298)
(0 -0.0045130983 0.51598168)
(0 -0.0057893566 0.51683472)
(0 -0.0070892764 0.51792896)
(0 -0.0084167329 0.51930043)
(0 -0.0097750101 0.52099698)
(0 -0.011166582 0.52308227)
(0 -0.012592915 0.52564111)
(0 -0.014054872 0.52878393)
(0 -0.015548133 0.53266857)
(0 -0.017092117 0.53773046)
(0 -0.018803149 0.54545136)
(0 -0.020843983 0.55757892)
(0 -0.022358839 0.56507876)
(0 -0.019413297 0.52724733)
(0 -0.0090811127 0.38374302)
(0 0.00076737097 0.13339593)
(0 -0.0006077518 0.1206505)
(0 0.0071280454 0.35817239)
(0 0.019094076 0.51849721)
(0 0.0241243 0.57325986)
(0 0.023386125 0.56977237)
(0 0.021182427 0.55502973)
(0 0.019315095 0.54478589)
(0 0.017745459 0.53838219)
(0 0.016257551 0.53367683)
(0 0.014796992 0.52989908)
(0 0.013367396 0.52681772)
(0 0.011969006 0.52429689)
(0 0.010601137 0.52223163)
(0 0.0092624676 0.52054289)
(0 0.0079509372 0.5191716)
(0 0.0066639719 0.51807328)
(0 0.0053984509 0.51721442)
(0 0.0041508219 0.51657006)
(0 0.0029172035 0.51612223)
(0 0.0016934805 0.51585885)
(0 0.00047538909 0.51577307)
(0 -0.00074137285 0.51586288)
(0 -0.0019611032 0.51613109)
(0 -0.003187961 0.51658541)
(0 -0.004425922 0.51723889)
(0 -0.0056786479 0.51811068)
(0 -0.0069494008 0.51922716)
(0 -0.008240901 0.52062379)
(0 -0.0095552784 0.52234768)
(0 -0.010893935 0.52446171)
(0 -0.012257294 0.52704949)
(0 -0.013645322 0.53021991)
(0 -0.015054345 0.53414042)
(0 -0.016509351 0.53931023)
(0 -0.018135822 0.547273)
(0 -0.020021467 0.55918501)
(0 -0.021119716 0.56406496)
(0 -0.017755033 0.52062191)
(0 -0.0077602253 0.37396496)
(0 0.0006858248 0.12973861)
(0 -0.00045652116 0.11789944)
(0 0.0062575733 0.34903303)
(0 0.017527893 0.51074099)
(0 0.02285149 0.57110623)
(0 0.022591315 0.571097)
(0 0.020574538 0.55697023)
(0 0.018769942 0.5464524)
(0 0.017267407 0.53987168)
(0 0.015853143 0.5351132)
(0 0.014462278 0.53130908)
(0 0.013094603 0.5282015)
(0 0.01175034 0.5256541)
(0 0.01042929 0.52356301)
(0 0.0091306325 0.52184974)
(0 0.0078530148 0.52045574)
(0 0.0065946755 0.51933708)
(0 0.0053533652 0.51846071)
(0 0.004126435 0.51780205)
(0 0.0029109181 0.51734341)
(0 0.0017036176 0.51707292)
(0 0.00050118535 0.51698382)
(0 -0.00069976457 0.51707413)
(0 -0.0019026083 0.51734656)
(0 -0.0031105822 0.51780867)
(0 -0.0043267317 0.51847325)
(0 -0.0055537855 0.51935907)
(0 -0.0067940809 0.52049207)
(0 -0.0080494414 0.52190711)
(0 -0.0093211492 0.52365069)
(0 -0.010609885 0.52578495)
(0 -0.011915438 0.52839245)
(0 -0.013237367 0.53158144)
(0 -0.014573548 0.53553283)
(0 -0.015954902 0.54081072)
(0 -0.017510443 0.54897865)
(0 -0.019249458 0.56052053)
(0 -0.019970923 0.56267187)
(0 -0.016291387 0.51403642)
(0 -0.0067115117 0.36500056)
(0 0.00058499893 0.1266063)
(0 -0.00032790079 0.11542435)
(0 0.0055777517 0.34069003)
(0 0.016146723 0.50318134)
(0 0.021674619 0.5686342)
(0 0.021839225 0.57212686)
(0 0.020007341 0.55879044)
(0 0.01825967 0.54805839)
(0 0.016810384 0.54129721)
(0 0.015458089 0.53648298)
(0 0.01412839 0.53265713)
(0 0.012816394 0.52952984)
(0 0.011521958 0.52696241)
(0 0.010245087 0.52485174)
(0 0.0089851982 0.52311971)
(0 0.0077413992 0.52170818)
(0 0.0065125116 0.52057361)
(0 0.0052969533 0.51968337)
(0 0.0040927995 0.51901323)
(0 0.002897838 0.51854578)
(0 0.0017096459 0.51826932)
(0 0.000525658 0.51817719)
(0 -0.00065672433 0.51826741)
(0 -0.0018400857 0.51854265)
(0 -0.0030268771 0.51901027)
(0 -0.0042193652 0.51968282)
(0 -0.0054195154 0.52057871)
(0 -0.0066289345 0.52172346)
(0 -0.0078487723 0.52315141)
(0 -0.0090797172 0.52490853)
(0 -0.010322009 0.52705636)
(0 -0.011575109 0.52967665)
(0 -0.012838547 0.53287803)
(0 -0.014112435 0.53685852)
(0 -0.015433471 0.54224532)
(0 -0.016928492 0.55057823)
(0 -0.018528069 0.56160919)
(0 -0.018911755 0.56096997)
(0 -0.01500153 0.50755232)
(0 -0.0058803725 0.35677316)
(0 0.00048063669 0.12387231)
(0 -0.00022322269 0.11316083)
(0 0.0050380982 0.33304837)
(0 0.014924471 0.49584914)
(0 0.020585443 0.56590619)
(0 0.021125719 0.57288584)
(0 0.019477112 0.56049484)
(0 0.01778361 0.54961267)
(0 0.01637673 0.54267019)
(0 0.015076421 0.53779569)
(0 0.013800256 0.53395036)
(0 0.012538147 0.53080798)
(0 0.011289324 0.52822542)
(0 0.010053787 0.5261)
(0 0.0088310176 0.5243538)
(0 0.0076203948 0.52292889)
(0 0.0064211402 0.52178206)
(0 0.00523217 0.52088099)
(0 0.0040521261 0.52020176)
(0 0.0028794079 0.51972719)
(0 0.0017122324 0.51944573)
(0 0.00054869011 0.51935082)
(0 -0.00061315356 0.51944049)
(0 -0.0017752171 0.51971733)
(0 -0.0029392978 0.52018856)
(0 -0.0041070224 0.52086646)
(0 -0.0052797472 0.52176917)
(0 -0.0064585173 0.52292179)
(0 -0.0076439952 0.52435826)
(0 -0.0088364788 0.52612411)
(0 -0.010035978 0.52828048)
(0 -0.011241859 0.53090851)
(0 -0.012453896 0.53411844)
(0 -0.013674908 0.53812863)
(0 -0.014946826 0.54362476)
(0 -0.016388884 0.55207965)
(0 -0.017854974 0.56247303)
(0 -0.017937699 0.55901826)
(0 -0.013863964 0.5012111)
(0 -0.0052201389 0.34920763)
(0 0.00038194353 0.12144179)
(0 -0.00014095824 0.11106546)
(0 0.0046009574 0.32602343)
(0 0.01383846 0.48876167)
(0 0.019575296 0.56297372)
(0 0.020446675 0.57339573)
(0 0.018979642 0.5620863)
(0 0.017339777 0.5511212)
(0 0.015967151 0.54399975)
(0 0.014710469 0.53905949)
(0 0.013481145 0.53519513)
(0 0.012263699 0.53204074)
(0 0.011056515 0.52944667)
(0 0.0098594464 0.52731016)
(0 0.008671925 0.52555335)
(0 0.0074934676 0.52411838)
(0 0.0063235534 0.52296223)
(0 0.0051614593 0.52205283)
(0 0.0040062621 0.52136648)
(0 0.002856846 0.52088619)
(0 0.0017119482 0.52060056)
(0 0.00057019507 0.5205031)
(0 -0.00056979483 0.52059184)
(0 -0.0017093901 0.5208693)
(0 -0.0028498587 0.52134256)
(0 -0.0039923102 0.52202371)
(0 -0.0051376265 0.5229306)
(0 -0.0062864334 0.52408802)
(0 -0.0074390581 0.52552959)
(0 -0.008595565 0.52730054)
(0 -0.0097558862 0.52946173)
(0 -0.010919458 0.53209403)
(0 -0.012086502 0.53531055)
(0 -0.013262813 0.53935259)
(0 -0.014494718 0.54495736)
(0 -0.015888981 0.55348898)
(0 -0.017226504 0.56313201)
(0 -0.017042182 0.55686562)
(0 -0.012858249 0.49503946)
(0 -0.0046922657 0.34223324)
(0 0.00029374893 0.11924496)
(0 -7.8198003e-05 0.10910921)
(0 0.0042389141 0.31954109)
(0 0.012869408 0.4819268)
(0 0.018635962 0.55987947)
(0 0.019798393 0.57367645)
(0 0.018510768 0.56356668)
(0 0.016925528 0.55258768)
(0 0.015581307 0.54529308)
(0 0.014361365 0.54028132)
(0 0.013173096 0.53639702)
(0 0.011995692 0.53323254)
(0 0.010826497 0.53062951)
(0 0.0096651248 0.52848462)
(0 0.0085108916 0.52671992)
(0 0.007363358 0.52527749)
(0 0.0062221546 0.52411437)
(0 0.00508681 0.52319863)
(0 0.0039567262 0.52250677)
(0 0.0028311639 0.52202192)
(0 0.0017092744 0.5217328)
(0 0.00059012036 0.52163299)
(0 -0.0005272379 0.52172051)
(0 -0.0016437243 0.52199781)
(0 -0.0027601764 0.52247186)
(0 -0.0038773015 0.52315457)
(0 -0.004995621 0.52406357)
(0 -0.0061154593 0.52522342)
(0 -0.0072369265 0.5266675)
(0 -0.0083599713 0.52844087)
(0 -0.0094845527 0.53060426)
(0 -0.010610289 0.5332386)
(0 -0.011737995 0.53646117)
(0 -0.012876544 0.54053817)
(0 -0.014075606 0.54624926)
(0 -0.015425323 0.55481082)
(0 -0.016638419 0.56360404)
(0 -0.016217775 0.55455234)
(0 -0.0119659 0.48905327)
(0 -0.0042658183 0.33578527)
(0 0.00021803615 0.11723117)
(0 -3.1575518e-05 0.10727247)
(0 0.0039324011 0.31353717)
(0 0.012001126 0.47534598)
(0 0.0177601 0.55665902)
(0 0.019177754 0.57374633)
(0 0.018066666 0.56493729)
(0 0.016537992 0.55401409)
(0 0.015218228 0.54655568)
(0 0.014029425 0.54146693)
(0 0.01287726 0.53756086)
(0 0.011735856 0.53438727)
(0 0.010601362 0.53177704)
(0 0.009473076 0.52962574)
(0 0.0083501725 0.52785519)
(0 0.0072321929 0.52640727)
(0 0.0061188415 0.525239)
(0 0.005009814 0.52431853)
(0 0.0039047488 0.52362243)
(0 0.0028031927 0.52313397)
(0 0.0017046193 0.52284194)
(0 0.00060843786 0.52273995)
(0 -0.00048594222 0.52282603)
(0 -0.0015790923 0.52310256)
(0 -0.0026715116 0.52357643)
(0 -0.0037636001 0.52425941)
(0 -0.0048556133 0.52516894)
(0 -0.005947668 0.52632944)
(0 -0.0070397492 0.52777413)
(0 -0.0081317737 0.52954804)
(0 -0.0092237932 0.53171188)
(0 -0.010315683 0.53434701)
(0 -0.011408959 0.53757617)
(0 -0.012515518 0.54169162)
(0 -0.013687197 0.54750481)
(0 -0.014994139 0.5560486)
(0 -0.016086421 0.56390512)
(0 -0.015457002 0.55211161)
(0 -0.011170732 0.4832607)
(0 -0.0039165618 0.32980562)
(0 0.00015501002 0.1153641)
(0 2.1912991e-06 0.1055416)
(0 0.0036676586 0.30795648)
(0 0.0112201 0.46901642)
(0 0.016941373 0.55334223)
(0 0.018582245 0.57362237)
(0 0.017643994 0.5661992)
(0 0.016174339 0.55540118)
(0 0.014876602 0.54779162)
(0 0.013714437 0.5426211)
(0 0.01259416 0.53869077)
(0 0.011485253 0.53550839)
(0 0.010382524 0.5328921)
(0 0.0092849134 0.53073576)
(0 0.0081914411 0.52896083)
(0 0.0071015906 0.52750891)
(0 0.0060150855 0.5263369)
(0 0.0049317248 0.52541293)
(0 0.003851312 0.52471362)
(0 0.0027736058 0.52422231)
(0 0.0016983253 0.52392783)
(0 0.00062514708 0.52382382)
(0 -0.00044624695 0.5239083)
(0 -0.001516155 0.52418363)
(0 -0.0025848187 0.52465659)
(0 -0.0036524086 0.52533885)
(0 -0.0047189915 0.52624776)
(0 -0.0057845501 0.5274076)
(0 -0.0068490122 0.52885158)
(0 -0.0079123202 0.53062475)
(0 -0.0089746567 0.53278797)
(0 -0.010036199 0.53542339)
(0 -0.011099241 0.53866042)
(0 -0.012178538 0.54281783)
(0 -0.013326833 0.5487269)
(0 -0.014591685 0.55720488)
(0 -0.015566464 0.56404958)
(0 -0.014752825 0.54957078)
(0 -0.010458877 0.47766446)
(0 -0.0036258912 0.3242428)
(0 0.00010384032 0.11361785)
(0 2.6021902e-05 0.10390668)
(0 0.0034350946 0.30275171)
(0 0.010515044 0.46293253)
(0 0.016174415 0.5499543)
(0 0.01800989 0.57332043)
(0 0.017239924 0.56735357)
(0 0.015831923 0.55674884)
(0 0.014554964 0.54900389)
(0 0.013415855 0.54374775)
(0 0.012323889 0.5397903)
(0 0.011244449 0.53659889)
(0 0.010170889 0.53397722)
(0 0.0091017506 0.53181677)
(0 0.0080359051 0.5300385)
(0 0.0069727547 0.52858368)
(0 0.0059120058 0.52740898)
(0 0.0048535126 0.52648245)
(0 0.0037971884 0.52578073)
(0 0.0027429436 0.52528716)
(0 0.0016906786 0.52499061)
(0 0.00064027212 0.52488473)
(0 -0.00040838742 0.52496753)
(0 -0.001455392 0.52524132)
(0 -0.0025007925 0.52571285)
(0 -0.0035445939 0.5263937)
(0 -0.0045867355 0.52730116)
(0 -0.005627123 0.52845947)
(0 -0.0066656747 0.52990185)
(0 -0.0077023965 0.53167351)
(0 -0.0087376191 0.53383555)
(0 -0.0097718472 0.5364713)
(0 -0.010808209 0.53971801)
(0 -0.011864057 0.54392057)
(0 -0.012991759 0.54991727)
(0 -0.014214444 0.55828166)
(0 -0.015074925 0.5640503)
(0 -0.014098903 0.54695256)
(0 -0.0098186184 0.47226356)
(0 -0.0033797635 0.31905167)
(0 6.3168039e-05 0.11197394)
(0 4.2365241e-05 0.10235996)
(0 0.0032280296 0.29788228)
(0 0.0098765053 0.45708695)
(0 0.015454704 0.54651661)
(0 0.017459164 0.57285538)
(0 0.016852131 0.56840175)
(0 0.01550836 0.55805641)
(0 0.014251816 0.55019454)
(0 0.013132944 0.54485007)
(0 0.012066254 0.54086246)
(0 0.011013662 0.5376614)
(0 0.0099669791 0.53503466)